                               Psi4 1.3.2 release

  ==> Input File <==

--------------------------------------------------------------------------
# density fitted hartree fock
molecule h2o {
noreorient
nocom
0 1
H 0.0000000000 0.0000000000 0.9166666667
H 0.0000000000 0.8263944962 -0.3564717894
O 0.0000000000 0.0000000000 0.0000000000
}

set scf_type pk
set basis 6-31g
gradient('hf')

--------------------------------------------------------------------------

    Molecular point group: cs
  Charge       = 0
  Multiplicity = 1
  Basis Set: 6-31G
    Blend: 6-31G

    Orbital Energies [Eh]
    ---------------------

    Doubly Occupied:

       1Ap   -20.544338     2Ap    -1.373843     3Ap    -0.754974
       4Ap    -0.550930     1App   -0.500495

  @RHF Final Energy:   -75.98133481856503

   => Energetics <=

    Nuclear Repulsion Energy =              9.6707117865512977
    One-Electron Energy =                -123.8549310920759723
    Two-Electron Energy =                  38.2028844869596540
    Total Energy =                        -75.9813348185650170

  Dipole Moment: [D]
     X:     0.0000      Y:     2.0360      Z:     1.3557     Total:     2.4461

    Molecular point group: cs

    Geometry (in Angstrom), charge = 0, multiplicity = 1:

       Center              X                  Y                   Z               Mass
    ------------   -----------------  -----------------  -----------------  -----------------
         H            0.000000000000     0.000000000000     0.916666666700     1.007825032230
         H            0.000000000000     0.826394496200    -0.356471789400     1.007825032230
         O            0.000000000000     0.000000000000     0.000000000000    15.994914619570

  Basis Set: 6-31G
    Blend: 6-31G

  -Total Gradient:
     Atom            X                  Y                   Z
    ------   -----------------  -----------------  -----------------
       1        0.000000000000     0.000425695440    -0.039404326937
       2        0.000000000000    -0.059211196536     0.026013414119
       3        0.000000000000     0.058785501096     0.013390912818

*** Psi4 exiting successfully. Buy a developer a beer!
