                               Psi4 1.2.1 release

  ==> Input File <==

--------------------------------------------------------------------------
# density-fitted hartree fock energies and gradients with 6-31g
molecule h2o {
0 1
H 0.0000000000 0.0000000000 0.9000000000
H 0.0000000000 1.0336618829 -0.3762221577
O 0.0000000000 0.0000000000 0.0000000000
}

set basis 6-31g

gradient('mp2')
--------------------------------------------------------------------------

    Molecular point group: cs
  Charge       = 0
  Multiplicity = 1
  Basis Set: 6-31G
    Blend: 6-31G
  Basis Set: (6-31G AUX)
    Blend: CC-PVDZ-JKFIT

    Orbital Energies [Eh]
    ---------------------

    Doubly Occupied:

       1Ap   -20.563231     2Ap    -1.338647     3Ap    -0.697531
       4Ap    -0.541428     1App   -0.496980

  @DF-RHF Final Energy:   -75.96502963167310

   => Energetics <=

    Nuclear Repulsion Energy =              8.8745730441952126
    One-Electron Energy =                -122.4035719462566760
    Two-Electron Energy =                  37.5639692703883625
    Total Energy =                        -75.9650296316731044

  Dipole Moment: [D]
     X:    -2.1462      Y:    -1.3687      Z:     0.0000     Total:     2.5455

  Basis Set: (6-31G AUX)
    Blend: CC-PVDZ-RI
    Molecular point group: cs

    Geometry (in Angstrom), charge = 0, multiplicity = 1:

       Center              X                  Y                   Z               Mass
    ------------   -----------------  -----------------  -----------------  -----------------
         H            0.057841069316    -0.870690734578     0.000000000000     1.007825032070
         H           -0.975820813584     0.405531423122     0.000000000000     1.007825032070
         O            0.057841069316     0.029309265422     0.000000000000    15.994914619560

  Basis Set: 6-31G
    Blend: 6-31G
  Basis Set: (6-31G AUX)
    Blend: CC-PVDZ-JKFIT
  Basis Set: (6-31G AUX)
    Blend: CC-PVDZ-JKFIT
	 Reference Energy          =     -75.9650296316731044 [Eh]
	 Singles Energy            =      -0.0000000000000000 [Eh]
	 Same-Spin Energy          =      -0.0308489719618014 [Eh]
	 Opposite-Spin Energy      =      -0.1010849475858766 [Eh]
	 Correlation Energy        =      -0.1319339195476781 [Eh]
	 Total Energy              =     -76.0969635512207816 [Eh]

	 ================> DF-SCS-MP2 Energies <==================
	-----------------------------------------------------------
	 SCS Same-Spin Scale       =       0.3333333333333333 [-]
	 SCS Opposite-Spin Scale   =       1.2000000000000000 [-]
	 SCS Same-Spin Energy      =      -0.0102829906539338 [Eh]
	 SCS Opposite-Spin Energy  =      -0.1213019371030519 [Eh]
	 SCS Correlation Energy    =      -0.1315849277569857 [Eh]
	 SCS Total Energy          =     -76.0966145594300940 [Eh]
	-----------------------------------------------------------

  -Total Gradient:
     Atom            X                  Y                   Z
    ------   -----------------  -----------------  -----------------
       1        0.004171861991     0.095761454978     0.000000000000
       2       -0.074733136057     0.030833038573     0.000000000000
       3        0.070561274066    -0.126594493551    -0.000000000000

*** Psi4 exiting successfully. Buy a developer a beer!
