                               Psi4 1.3.1 release

  ==> Input File <==

--------------------------------------------------------------------------
# density fitted hartree fock
molecule h2o {
0 1
H 0.0000000000 0.0000000000 1.1222222222
H 0.0000000000 0.9519808279 -0.1678599051
O 0.0000000000 0.0000000000 0.0000000000
}

set basis 6-31g
energy('hf')

--------------------------------------------------------------------------

    Molecular point group: cs

    Geometry (in Angstrom), charge = 0, multiplicity = 1:

       Center              X                  Y                   Z               Mass
    ------------   -----------------  -----------------  -----------------  -----------------
         H            0.053270406864    -1.068818553305     0.000000000000     1.007825032230
         H           -0.898710421036     0.221263573995     0.000000000000     1.007825032230
         O            0.053270406864     0.053403668895     0.000000000000    15.994914619570

  Charge       = 0
  Multiplicity = 1
  Basis Set: 6-31G
    Blend: 6-31G
  Basis Set: (6-31G AUX)
    Blend: CC-PVDZ-JKFIT

    Orbital Energies [Eh]
    ---------------------

    Doubly Occupied:

       1Ap   -20.580521     2Ap    -1.324553     3Ap    -0.660696
       4Ap    -0.553597     1App   -0.500659

  @DF-RHF Final Energy:   -75.96244136455476

   => Energetics <=

    Nuclear Repulsion Energy =              8.4818044709354883
    One-Electron Energy =                -121.6484289956830906
    Two-Electron Energy =                  37.2041831601928337
    Total Energy =                        -75.9624413645547634

  Dipole Moment: [D]
     X:    -2.0721      Y:    -1.7637      Z:     0.0000     Total:     2.7211

*** Psi4 exiting successfully. Buy a developer a beer!
