                               Psi4 1.2.1 release

  ==> Input File <==

--------------------------------------------------------------------------
# density-fitted hartree fock energies and gradients with 6-31g
molecule h2o {
0 1
H 0.0000000000 0.0000000000 0.9500000000
H 0.0000000000 0.9866772518 -0.3591211505
O 0.0000000000 0.0000000000 0.0000000000
}

set basis 6-31g

gradient('mp2')
--------------------------------------------------------------------------

    Molecular point group: cs
  Charge       = 0
  Multiplicity = 1
  Basis Set: 6-31G
    Blend: 6-31G
  Basis Set: (6-31G AUX)
    Blend: CC-PVDZ-JKFIT

    Orbital Energies [Eh]
    ---------------------

    Doubly Occupied:

       1Ap   -20.564059     2Ap    -1.331336     3Ap    -0.695762
       4Ap    -0.543198     1App   -0.496424

  @DF-RHF Final Energy:   -75.97693371146134

   => Energetics <=

    Nuclear Repulsion Energy =              8.8108607459122190
    One-Electron Energy =                -122.3140318501817916
    Two-Electron Energy =                  37.5262373928082340
    Total Energy =                        -75.9769337114613279

  Dipole Moment: [D]
     X:    -2.1171      Y:    -1.4157      Z:     0.0000     Total:     2.5468

  Basis Set: (6-31G AUX)
    Blend: CC-PVDZ-RI
    Molecular point group: cs

    Geometry (in Angstrom), charge = 0, multiplicity = 1:

       Center              X                  Y                   Z               Mass
    ------------   -----------------  -----------------  -----------------  -----------------
         H            0.055211929798    -0.916935934219     0.000000000000     1.007825032070
         H           -0.931465322002     0.392185216281     0.000000000000     1.007825032070
         O            0.055211929798     0.033064065781     0.000000000000    15.994914619560

  Basis Set: 6-31G
    Blend: 6-31G
  Basis Set: (6-31G AUX)
    Blend: CC-PVDZ-JKFIT
  Basis Set: (6-31G AUX)
    Blend: CC-PVDZ-JKFIT
	 Reference Energy          =     -75.9769337114613421 [Eh]
	 Singles Energy            =      -0.0000000000000000 [Eh]
	 Same-Spin Energy          =      -0.0309901879933653 [Eh]
	 Opposite-Spin Energy      =      -0.1012152920760566 [Eh]
	 Correlation Energy        =      -0.1322054800694219 [Eh]
	 Total Energy              =     -76.1091391915307582 [Eh]

	 ================> DF-SCS-MP2 Energies <==================
	-----------------------------------------------------------
	 SCS Same-Spin Scale       =       0.3333333333333333 [-]
	 SCS Opposite-Spin Scale   =       1.2000000000000000 [-]
	 SCS Same-Spin Energy      =      -0.0103300626644551 [Eh]
	 SCS Opposite-Spin Energy  =      -0.1214583504912679 [Eh]
	 SCS Correlation Energy    =      -0.1317884131557230 [Eh]
	 SCS Total Energy          =     -76.1087221246170600 [Eh]
	-----------------------------------------------------------

  -Total Gradient:
     Atom            X                  Y                   Z
    ------   -----------------  -----------------  -----------------
       1        0.003614537075     0.026966866093    -0.000000000000
       2       -0.052074213889     0.022433639083     0.000000000000
       3        0.048459676814    -0.049400505176     0.000000000000

*** Psi4 exiting successfully. Buy a developer a beer!
