                               Psi4 1.3.2 release

  ==> Input File <==

--------------------------------------------------------------------------
# density fitted hartree fock
molecule h2o {
noreorient
nocom
0 1
H 0.0000000000 0.0000000000 0.9666666667
H 0.0000000000 0.8371578903 -0.4833333333
O 0.0000000000 0.0000000000 0.0000000000
}

set scf_type pk
set basis 6-31g
gradient('hf')

--------------------------------------------------------------------------

    Molecular point group: cs
  Charge       = 0
  Multiplicity = 1
  Basis Set: 6-31G
    Blend: 6-31G

    Orbital Energies [Eh]
    ---------------------

    Doubly Occupied:

       1Ap   -20.549436     2Ap    -1.334454     3Ap    -0.728063
       4Ap    -0.529982     1App   -0.492520

  @RHF Final Energy:   -75.98264380525985

   => Energetics <=

    Nuclear Repulsion Energy =              9.0748510094206356
    One-Electron Energy =                -122.8460789543093199
    Two-Electron Energy =                  37.7885841396288313
    Total Energy =                        -75.9826438052598405

  Dipole Moment: [D]
     X:     0.0000      Y:     2.0233      Z:     1.1681     Total:     2.3363

    Molecular point group: cs

    Geometry (in Angstrom), charge = 0, multiplicity = 1:

       Center              X                  Y                   Z               Mass
    ------------   -----------------  -----------------  -----------------  -----------------
         H            0.000000000000     0.000000000000     0.966666666700     1.007825032230
         H            0.000000000000     0.837157890300    -0.483333333300     1.007825032230
         O            0.000000000000     0.000000000000     0.000000000000    15.994914619570

  Basis Set: 6-31G
    Blend: 6-31G

  -Total Gradient:
     Atom            X                  Y                   Z
    ------   -----------------  -----------------  -----------------
       1        0.000000000000    -0.013995793359     0.022976458993
       2        0.000000000000     0.012900300434    -0.023608942055
       3        0.000000000000     0.001095492925     0.000632483063

*** Psi4 exiting successfully. Buy a developer a beer!
