                               Psi4 1.3.2 release

  ==> Input File <==

--------------------------------------------------------------------------
# density fitted hartree fock
molecule h2o {
0 1
H 0.0000000000 0.0000000000 0.9166666667
H 0.0000000000 0.7938566201 -0.4583333333
O 0.0000000000 0.0000000000 0.0000000000
}

set scf_type pk
set basis 6-31g
gradient('hf')

--------------------------------------------------------------------------

    Molecular point group: c2v
  Charge       = 0
  Multiplicity = 1
  Basis Set: 6-31G
    Blend: 6-31G

    Orbital Energies [Eh]
    ---------------------

    Doubly Occupied:

       1A1   -20.540703     2A1    -1.361247     1B2    -0.760065
       3A1    -0.537374     1B1    -0.496592

  @RHF Final Energy:   -75.98181058689912

   => Energetics <=

    Nuclear Repulsion Energy =              9.5698428827113435
    One-Electron Energy =                -123.7113462209635486
    Two-Electron Energy =                  38.1596927513530915
    Total Energy =                        -75.9818105868991154

  Dipole Moment: [D]
     X:     0.0000      Y:     0.0000      Z:     2.3117     Total:     2.3117

    Molecular point group: c2v

    Geometry (in Angstrom), charge = 0, multiplicity = 1:

       Center              X                  Y                   Z               Mass
    ------------   -----------------  -----------------  -----------------  -----------------
         H            0.000000000000    -0.793856620127     0.407039016411     1.007825032230
         H           -0.000000000000     0.793856620127     0.407039016411     1.007825032230
         O            0.000000000000     0.000000000000    -0.051294316924    15.994914619570

  Basis Set: 6-31G
    Blend: 6-31G

  -Total Gradient:
     Atom            X                  Y                   Z
    ------   -----------------  -----------------  -----------------
       1       -0.000000000000     0.025090956151    -0.027058545174
       2        0.000000000000    -0.025090956151    -0.027058545174
       3       -0.000000000000     0.000000000000     0.054117090348

*** Psi4 exiting successfully. Buy a developer a beer!
