                               Psi4 1.3.2 release

  ==> Input File <==

--------------------------------------------------------------------------
# density fitted hartree fock
molecule h2o {
noreorient
nocom
0 1
H 0.0000000000 0.0000000000 0.9166666667
H 0.0000000000 0.9730448706 -0.2306158707
O 0.0000000000 0.0000000000 0.0000000000
}

set scf_type pk
set basis 6-31g
gradient('hf')

--------------------------------------------------------------------------

    Molecular point group: cs
  Charge       = 0
  Multiplicity = 1
  Basis Set: 6-31G
    Blend: 6-31G

    Orbital Energies [Eh]
    ---------------------

    Doubly Occupied:

       1Ap   -20.561338     2Ap    -1.359029     3Ap    -0.707901
       4Ap    -0.562296     1App   -0.502058

  @RHF Final Energy:   -75.97997971734277

   => Energetics <=

    Nuclear Repulsion Energy =              9.2034558543099667
    One-Electron Energy =                -122.9816269871541579
    Two-Electron Energy =                  37.7981914155014209
    Total Energy =                        -75.9799797173427720

  Dipole Moment: [D]
     X:     0.0000      Y:     2.0994      Z:     1.6168     Total:     2.6498

    Molecular point group: cs

    Geometry (in Angstrom), charge = 0, multiplicity = 1:

       Center              X                  Y                   Z               Mass
    ------------   -----------------  -----------------  -----------------  -----------------
         H            0.000000000000     0.000000000000     0.916666666700     1.007825032230
         H            0.000000000000     0.973044870600    -0.230615870700     1.007825032230
         O            0.000000000000     0.000000000000     0.000000000000    15.994914619570

  Basis Set: 6-31G
    Blend: 6-31G

  -Total Gradient:
     Atom            X                  Y                   Z
    ------   -----------------  -----------------  -----------------
       1        0.000000000000     0.014759640133    -0.047775320047
       2        0.000000000000     0.043939887057     0.003490520964
       3        0.000000000000    -0.058699527191     0.044284799082

*** Psi4 exiting successfully. Buy a developer a beer!
