                               Psi4 1.2.1 release

  ==> Input File <==

--------------------------------------------------------------------------
# density-fitted hartree fock energies and gradients with 6-31g
molecule h2o {
0 1
H 0.0000000000 0.0000000000 0.9500000000
H 0.0000000000 0.9396926208 -0.3420201433
O 0.0000000000 0.0000000000 0.0000000000
}

set basis 6-31g

gradient('mp2')
--------------------------------------------------------------------------

    Molecular point group: cs
  Charge       = 0
  Multiplicity = 1
  Basis Set: 6-31G
    Blend: 6-31G
  Basis Set: (6-31G AUX)
    Blend: CC-PVDZ-JKFIT

    Orbital Energies [Eh]
    ---------------------

    Doubly Occupied:

       1Ap   -20.559505     2Ap    -1.341704     3Ap    -0.709257
       4Ap    -0.547318     1App   -0.497600

  @DF-RHF Final Energy:   -75.98298051072764

   => Energetics <=

    Nuclear Repulsion Energy =              9.0208785860460772
    One-Electron Energy =                -122.6969471167797394
    Two-Electron Energy =                  37.6930880200060159
    Total Energy =                        -75.9829805107276428

  Dipole Moment: [D]
     X:    -2.0971      Y:    -1.4319      Z:     0.0000     Total:     2.5394

  Basis Set: (6-31G AUX)
    Blend: CC-PVDZ-RI
    Molecular point group: cs

    Geometry (in Angstrom), charge = 0, multiplicity = 1:

       Center              X                  Y                   Z               Mass
    ------------   -----------------  -----------------  -----------------  -----------------
         H            0.052582790286    -0.915979005693     0.000000000000     1.007825032070
         H           -0.887109830514     0.376041137607     0.000000000000     1.007825032070
         O            0.052582790286     0.034020994307     0.000000000000    15.994914619560

  Basis Set: 6-31G
    Blend: 6-31G
  Basis Set: (6-31G AUX)
    Blend: CC-PVDZ-JKFIT
  Basis Set: (6-31G AUX)
    Blend: CC-PVDZ-JKFIT
	 Reference Energy          =     -75.9829805107276428 [Eh]
	 Singles Energy            =      -0.0000000000000000 [Eh]
	 Same-Spin Energy          =      -0.0305332910852200 [Eh]
	 Opposite-Spin Energy      =      -0.0994984097125392 [Eh]
	 Correlation Energy        =      -0.1300317007977592 [Eh]
	 Total Energy              =     -76.1130122115254011 [Eh]

	 ================> DF-SCS-MP2 Energies <==================
	-----------------------------------------------------------
	 SCS Same-Spin Scale       =       0.3333333333333333 [-]
	 SCS Opposite-Spin Scale   =       1.2000000000000000 [-]
	 SCS Same-Spin Energy      =      -0.0101777636950733 [Eh]
	 SCS Opposite-Spin Energy  =      -0.1193980916550470 [Eh]
	 SCS Correlation Energy    =      -0.1295758553501204 [Eh]
	 SCS Total Energy          =     -76.1125563660777686 [Eh]
	-----------------------------------------------------------

  -Total Gradient:
     Atom            X                  Y                   Z
    ------   -----------------  -----------------  -----------------
       1        0.001270738758     0.025622714366    -0.000000000000
       2       -0.021521627615     0.009117901795    -0.000000000000
       3        0.020250888856    -0.034740616161     0.000000000000

*** Psi4 exiting successfully. Buy a developer a beer!
