                               Psi4 1.3.2 release

  ==> Input File <==

--------------------------------------------------------------------------
# density fitted hartree fock
molecule h2o {
noreorient
nocom
0 1
H 0.0000000000 0.0000000000 0.9500000000
H 0.0000000000 0.7794228634 -0.4500000000
O 0.0000000000 0.0000000000 0.0000000000
}

set scf_type pk
set basis 6-31g
gradient('hf')

--------------------------------------------------------------------------

    Molecular point group: cs
  Charge       = 0
  Multiplicity = 1
  Basis Set: 6-31G
    Blend: 6-31G

    Orbital Energies [Eh]
    ---------------------

    Doubly Occupied:

       1Ap   -20.542097     2Ap    -1.357281     3Ap    -0.754547
       4Ap    -0.536049     1App   -0.495898

  @RHF Final Energy:   -75.98113210571074

   => Energetics <=

    Nuclear Repulsion Energy =              9.4902789130830421
    One-Electron Energy =                -123.5710792347359046
    Two-Electron Energy =                  38.0996682159421169
    Total Energy =                        -75.9811321057107421

  Dipole Moment: [D]
     X:     0.0000      Y:     1.9800      Z:     1.2031     Total:     2.3169

    Molecular point group: cs

    Geometry (in Angstrom), charge = 0, multiplicity = 1:

       Center              X                  Y                   Z               Mass
    ------------   -----------------  -----------------  -----------------  -----------------
         H            0.000000000000     0.000000000000     0.950000000000     1.007825032230
         H            0.000000000000     0.779422863400    -0.450000000000     1.007825032230
         O            0.000000000000     0.000000000000     0.000000000000    15.994914619570

  Basis Set: 6-31G
    Blend: 6-31G

  -Total Gradient:
     Atom            X                  Y                   Z
    ------   -----------------  -----------------  -----------------
       1        0.000000000000    -0.011194346270     0.007216479724
       2        0.000000000000    -0.058852237323     0.020334120637
       3        0.000000000000     0.070046583593    -0.027550600362

*** Psi4 exiting successfully. Buy a developer a beer!
