                               Psi4 1.3.2 release

  ==> Input File <==

--------------------------------------------------------------------------
# density fitted hartree fock
molecule h2o {
0 1
H 0.0000000000 0.0000000000 0.9333333333
H 0.0000000000 0.8340571310 -0.4188792349
O 0.0000000000 0.0000000000 0.0000000000
}

set scf_type pk
set basis 6-31g
gradient('hf')

--------------------------------------------------------------------------

    Molecular point group: c2v
  Charge       = 0
  Multiplicity = 1
  Basis Set: 6-31G
    Blend: 6-31G

    Orbital Energies [Eh]
    ---------------------

    Doubly Occupied:

       1A1   -20.546346     2A1    -1.355655     1B2    -0.744318
       3A1    -0.541013     1B1    -0.496858

  @RHF Final Energy:   -75.98431700749920

   => Energetics <=

    Nuclear Repulsion Energy =              9.4046867998025974
    One-Electron Energy =                -123.4096271092348616
    Two-Electron Energy =                  38.0206233019330710
    Total Energy =                        -75.9843170074992003

  Dipole Moment: [D]
     X:    -0.0000      Y:     0.0000      Z:     2.3915     Total:     2.3915

    Molecular point group: c2v

    Geometry (in Angstrom), charge = 0, multiplicity = 1:

       Center              X                  Y                   Z               Mass
    ------------   -----------------  -----------------  -----------------  -----------------
         H            0.000000000000    -0.794375560955     0.435142300003     1.007825032230
         H           -0.000000000000     0.794375560955     0.435142300003     1.007825032230
         O           -0.000000000000     0.000000000000    -0.054835841635    15.994914619570

  Basis Set: 6-31G
    Blend: 6-31G

  -Total Gradient:
     Atom            X                  Y                   Z
    ------   -----------------  -----------------  -----------------
       1       -0.000000000000     0.009582874352    -0.014250466336
       2        0.000000000000    -0.009582874352    -0.014250466336
       3       -0.000000000000     0.000000000000     0.028500932672

*** Psi4 exiting successfully. Buy a developer a beer!
