                               Psi4 1.3.2 release

  ==> Input File <==

--------------------------------------------------------------------------
# density fitted hartree fock
molecule h2o {
0 1
H 0.0000000000 0.0000000000 1.0000000000
H 0.0000000000 0.8757403835 -0.2075542837
O 0.0000000000 0.0000000000 0.0000000000
}

set scf_type pk
set basis 6-31g
gradient('hf')

--------------------------------------------------------------------------

    Molecular point group: cs
  Charge       = 0
  Multiplicity = 1
  Basis Set: 6-31G
    Blend: 6-31G

    Orbital Energies [Eh]
    ---------------------

    Doubly Occupied:

       1Ap   -20.559612     2Ap    -1.364450     3Ap    -0.712688
       4Ap    -0.563355     1App   -0.502588

  @RHF Final Energy:   -75.97809048059536

   => Energetics <=

    Nuclear Repulsion Energy =              9.2919676668118125
    One-Electron Energy =                -123.1347278277025907
    Two-Electron Energy =                  37.8646696802954139
    Total Energy =                        -75.9780904805953696

  Dipole Moment: [D]
     X:    -2.0492      Y:    -1.6744      Z:     0.0000     Total:     2.6463

    Molecular point group: cs

    Geometry (in Angstrom), charge = 0, multiplicity = 1:

       Center              X                  Y                   Z               Mass
    ------------   -----------------  -----------------  -----------------  -----------------
         H            0.049004187026    -0.955656769036     0.000000000000     1.007825032230
         H           -0.826736196474     0.251897514664     0.000000000000     1.007825032230
         O            0.049004187026     0.044343230964     0.000000000000    15.994914619570

  Basis Set: 6-31G
    Blend: 6-31G

  -Total Gradient:
     Atom            X                  Y                   Z
    ------   -----------------  -----------------  -----------------
       1       -0.014170844499    -0.042076872212     0.000000000000
       2        0.067077856794    -0.032079304263     0.000000000000
       3       -0.052907012295     0.074156176476     0.000000000000

*** Psi4 exiting successfully. Buy a developer a beer!
