                               Psi4 1.3.2 release

  ==> Input File <==

--------------------------------------------------------------------------
# density fitted hartree fock
molecule h2o {
0 1
H 0.0000000000 0.0000000000 0.9333333333
H 0.0000000000 0.9406100416 -0.2229286751
O 0.0000000000 0.0000000000 0.0000000000
}

set scf_type pk
set basis 6-31g
gradient('hf')

--------------------------------------------------------------------------

    Molecular point group: cs
  Charge       = 0
  Multiplicity = 1
  Basis Set: 6-31G
    Blend: 6-31G

    Orbital Energies [Eh]
    ---------------------

    Doubly Occupied:

       1Ap   -20.559781     2Ap    -1.361986     3Ap    -0.712223
       4Ap    -0.563926     1App   -0.502385

  @RHF Final Energy:   -75.98286832656805

   => Energetics <=

    Nuclear Repulsion Energy =              9.2702277230769372
    One-Electron Energy =                -123.1055915743115179
    Two-Electron Energy =                  37.8524955246665229
    Total Energy =                        -75.9828683265680525

  Dipole Moment: [D]
     X:    -2.0852      Y:    -1.6308      Z:     0.0000     Total:     2.6472

    Molecular point group: cs

    Geometry (in Angstrom), charge = 0, multiplicity = 1:

       Center              X                  Y                   Z               Mass
    ------------   -----------------  -----------------  -----------------  -----------------
         H            0.052634126810    -0.893580909647     0.000000000000     1.007825032230
         H           -0.887975914790     0.262681098753     0.000000000000     1.007825032230
         O            0.052634126810     0.039752423653     0.000000000000    15.994914619570

  Basis Set: 6-31G
    Blend: 6-31G

  -Total Gradient:
     Atom            X                  Y                   Z
    ------   -----------------  -----------------  -----------------
       1       -0.015401114080     0.025343807905     0.000000000000
       2       -0.015357568961    -0.011642157088     0.000000000000
       3        0.030758683041    -0.013701650817     0.000000000000

*** Psi4 exiting successfully. Buy a developer a beer!
