                               Psi4 1.2.1 release

  ==> Input File <==

--------------------------------------------------------------------------
# density-fitted hartree fock energies and gradients with 6-31g
molecule h2o {
0 1
H 0.0000000000 0.0000000000 1.1500000000
H 0.0000000000 1.1276311449 -0.4104241720
O 0.0000000000 0.0000000000 0.0000000000
}

set basis 6-31g

gradient('mp2')
--------------------------------------------------------------------------

    Molecular point group: cs
  Charge       = 0
  Multiplicity = 1
  Basis Set: 6-31G
    Blend: 6-31G
  Basis Set: (6-31G AUX)
    Blend: CC-PVDZ-JKFIT

    Orbital Energies [Eh]
    ---------------------

    Doubly Occupied:

       1Ap   -20.596138     2Ap    -1.265354     3Ap    -0.611947
       4Ap    -0.518173     1App   -0.491928

  @DF-RHF Final Energy:   -75.92039402244278

   => Energetics <=

    Nuclear Repulsion Energy =              7.4839465192382857
    One-Electron Energy =                -119.8416009839712189
    Two-Electron Energy =                  36.4372604422901674
    Total Energy =                        -75.9203940224427640

  Dipole Moment: [D]
     X:    -2.0889      Y:    -1.4536      Z:     0.0000     Total:     2.5449

  Basis Set: (6-31G AUX)
    Blend: CC-PVDZ-RI
    Molecular point group: cs

    Geometry (in Angstrom), charge = 0, multiplicity = 1:

       Center              X                  Y                   Z               Mass
    ------------   -----------------  -----------------  -----------------  -----------------
         H            0.063099348340    -1.108615232467     0.000000000000     1.007825032070
         H           -1.064531796560     0.451808939533     0.000000000000     1.007825032070
         O            0.063099348340     0.041384767533     0.000000000000    15.994914619560

  Basis Set: 6-31G
    Blend: 6-31G
  Basis Set: (6-31G AUX)
    Blend: CC-PVDZ-JKFIT
  Basis Set: (6-31G AUX)
    Blend: CC-PVDZ-JKFIT
	 Reference Energy          =     -75.9203940224427782 [Eh]
	 Singles Energy            =      -0.0000000000000000 [Eh]
	 Same-Spin Energy          =      -0.0342778221125434 [Eh]
	 Opposite-Spin Energy      =      -0.1141924945855325 [Eh]
	 Correlation Energy        =      -0.1484703166980759 [Eh]
	 Total Energy              =     -76.0688643391408590 [Eh]

	 ================> DF-SCS-MP2 Energies <==================
	-----------------------------------------------------------
	 SCS Same-Spin Scale       =       0.3333333333333333 [-]
	 SCS Opposite-Spin Scale   =       1.2000000000000000 [-]
	 SCS Same-Spin Energy      =      -0.0114259407041811 [Eh]
	 SCS Opposite-Spin Energy  =      -0.1370309935026390 [Eh]
	 SCS Correlation Energy    =      -0.1484569342068201 [Eh]
	 SCS Total Energy          =     -76.0688509566495981 [Eh]
	-----------------------------------------------------------

  -Total Gradient:
     Atom            X                  Y                   Z
    ------   -----------------  -----------------  -----------------
       1        0.013197469394    -0.087445616212    -0.000000000000
       2       -0.088137400254     0.045538656151    -0.000000000000
       3        0.074939930860     0.041906960060     0.000000000000

*** Psi4 exiting successfully. Buy a developer a beer!
