                               Psi4 1.3.2 release

  ==> Input File <==

--------------------------------------------------------------------------
# density fitted hartree fock
molecule h2o {
noreorient
nocom
0 1
H 0.0000000000 0.0000000000 0.9000000000
H 0.0000000000 0.8457233587 -0.3078181290
O 0.0000000000 0.0000000000 0.0000000000
}

set scf_type pk
set basis 6-31g
gradient('hf')

--------------------------------------------------------------------------

    Molecular point group: cs
  Charge       = 0
  Multiplicity = 1
  Basis Set: 6-31G
    Blend: 6-31G

    Orbital Energies [Eh]
    ---------------------

    Doubly Occupied:

       1Ap   -20.545182     2Ap    -1.382762     3Ap    -0.754390
       4Ap    -0.558494     1App   -0.502670

  @RHF Final Energy:   -75.97928912996181

   => Energetics <=

    Nuclear Repulsion Energy =              9.7664871295663662
    One-Electron Energy =                -124.0045570605807370
    Two-Electron Energy =                  38.2587808010525521
    Total Energy =                        -75.9792891299618134

  Dipole Moment: [D]
     X:     0.0000      Y:     2.0525      Z:     1.4371     Total:     2.5056

    Molecular point group: cs

    Geometry (in Angstrom), charge = 0, multiplicity = 1:

       Center              X                  Y                   Z               Mass
    ------------   -----------------  -----------------  -----------------  -----------------
         H            0.000000000000     0.000000000000     0.900000000000     1.007825032230
         H            0.000000000000     0.845723358700    -0.307818129000     1.007825032230
         O            0.000000000000     0.000000000000     0.000000000000    15.994914619570

  Basis Set: 6-31G
    Blend: 6-31G

  -Total Gradient:
     Atom            X                  Y                   Z
    ------   -----------------  -----------------  -----------------
       1        0.000000000000     0.007364369353    -0.066748231098
       2        0.000000000000    -0.060204057558     0.029749483108
       3        0.000000000000     0.052839688204     0.036998747990

*** Psi4 exiting successfully. Buy a developer a beer!
