                               Psi4 1.3.2 release

  ==> Input File <==

--------------------------------------------------------------------------
# density fitted hartree fock
molecule h2o {
noreorient
nocom
0 1
H 0.0000000000 0.0000000000 0.9833333333
H 0.0000000000 0.9730448706 -0.2306158707
O 0.0000000000 0.0000000000 0.0000000000
}

set scf_type pk
set basis 6-31g
gradient('hf')

--------------------------------------------------------------------------

    Molecular point group: cs
  Charge       = 0
  Multiplicity = 1
  Basis Set: 6-31G
    Blend: 6-31G

    Orbital Energies [Eh]
    ---------------------

    Doubly Occupied:

       1Ap   -20.568148     2Ap    -1.340067     3Ap    -0.689423
       4Ap    -0.557770     1App   -0.500280

  @RHF Final Energy:   -75.98089308875620

   => Energetics <=

    Nuclear Repulsion Energy =              8.8787218452892169
    One-Electron Energy =                -122.4078522590376252
    Two-Electron Energy =                  37.5482373249922077
    Total Energy =                        -75.9808930887562042

  Dipole Moment: [D]
     X:     0.0000      Y:     2.0914      Z:     1.6464     Total:     2.6617

    Molecular point group: cs

    Geometry (in Angstrom), charge = 0, multiplicity = 1:

       Center              X                  Y                   Z               Mass
    ------------   -----------------  -----------------  -----------------  -----------------
         H            0.000000000000     0.000000000000     0.983333333300     1.007825032230
         H            0.000000000000     0.973044870600    -0.230615870700     1.007825032230
         O            0.000000000000     0.000000000000     0.000000000000    15.994914619570

  Basis Set: 6-31G
    Blend: 6-31G

  -Total Gradient:
     Atom            X                  Y                   Z
    ------   -----------------  -----------------  -----------------
       1        0.000000000000     0.011088030426     0.027468209861
       2        0.000000000000     0.042888962905     0.001040397717
       3        0.000000000000    -0.053976993331    -0.028508607577

*** Psi4 exiting successfully. Buy a developer a beer!
