                               Psi4 1.2.1 release

  ==> Input File <==

--------------------------------------------------------------------------
# density-fitted hartree fock energies and gradients with 6-31g
molecule h2o {
0 1
H 0.0000000000 0.0000000000 1.0000000000
H 0.0000000000 1.0625184089 -0.2847009496
O 0.0000000000 0.0000000000 0.0000000000
}

set basis 6-31g

gradient('mp2')
--------------------------------------------------------------------------

    Molecular point group: cs
  Charge       = 0
  Multiplicity = 1
  Basis Set: 6-31G
    Blend: 6-31G
  Basis Set: (6-31G AUX)
    Blend: CC-PVDZ-JKFIT

    Orbital Energies [Eh]
    ---------------------

    Doubly Occupied:

       1Ap   -20.577893     2Ap    -1.314124     3Ap    -0.663279
       4Ap    -0.544998     1App   -0.497369

  @DF-RHF Final Energy:   -75.96632596229502

   => Energetics <=

    Nuclear Repulsion Energy =              8.3993927312618091
    One-Electron Energy =                -121.5361145506431910
    Two-Electron Energy =                  37.1703958570863620
    Total Energy =                        -75.9663259622950164

  Dipole Moment: [D]
     X:    -2.1134      Y:    -1.5878      Z:     0.0000     Total:     2.6434

  Basis Set: (6-31G AUX)
    Blend: CC-PVDZ-RI
    Molecular point group: cs

    Geometry (in Angstrom), charge = 0, multiplicity = 1:

       Center              X                  Y                   Z               Mass
    ------------   -----------------  -----------------  -----------------  -----------------
         H            0.059455806541    -0.959973698711     0.000000000000     1.007825032070
         H           -1.003062602359     0.324727250889     0.000000000000     1.007825032070
         O            0.059455806541     0.040026301289     0.000000000000    15.994914619560

  Basis Set: 6-31G
    Blend: 6-31G
  Basis Set: (6-31G AUX)
    Blend: CC-PVDZ-JKFIT
  Basis Set: (6-31G AUX)
    Blend: CC-PVDZ-JKFIT
	 Reference Energy          =     -75.9663259622950164 [Eh]
	 Singles Energy            =      -0.0000000000000000 [Eh]
	 Same-Spin Energy          =      -0.0319753640790092 [Eh]
	 Opposite-Spin Energy      =      -0.1052257080128762 [Eh]
	 Correlation Energy        =      -0.1372010720918854 [Eh]
	 Total Energy              =     -76.1035270343869001 [Eh]

	 ================> DF-SCS-MP2 Energies <==================
	-----------------------------------------------------------
	 SCS Same-Spin Scale       =       0.3333333333333333 [-]
	 SCS Opposite-Spin Scale   =       1.2000000000000000 [-]
	 SCS Same-Spin Energy      =      -0.0106584546930031 [Eh]
	 SCS Opposite-Spin Energy  =      -0.1262708496154514 [Eh]
	 SCS Correlation Energy    =      -0.1369293043084545 [Eh]
	 SCS Total Energy          =     -76.1032552666034690 [Eh]
	-----------------------------------------------------------

  -Total Gradient:
     Atom            X                  Y                   Z
    ------   -----------------  -----------------  -----------------
       1       -0.000362332552    -0.016013290681     0.000000000000
       2       -0.072030163444     0.018959410231    -0.000000000000
       3        0.072392495996    -0.002946119550     0.000000000000

*** Psi4 exiting successfully. Buy a developer a beer!
