                               Psi4 1.3.2 release

  ==> Input File <==

--------------------------------------------------------------------------
# density fitted hartree fock
molecule h2o {
noreorient
nocom
0 1
H 0.0000000000 0.0000000000 0.9500000000
H 0.0000000000 0.8621905611 -0.2581229094
O 0.0000000000 0.0000000000 0.0000000000
}

set scf_type pk
set basis 6-31g
gradient('hf')

--------------------------------------------------------------------------

    Molecular point group: cs
  Charge       = 0
  Multiplicity = 1
  Basis Set: 6-31G
    Blend: 6-31G

    Orbital Energies [Eh]
    ---------------------

    Doubly Occupied:

       1Ap   -20.552373     2Ap    -1.372628     3Ap    -0.732865
       4Ap    -0.561088     1App   -0.502388

  @RHF Final Energy:   -75.98144247908292

   => Energetics <=

    Nuclear Repulsion Energy =              9.5165601476668229
    One-Electron Energy =                -123.5533214206619306
    Two-Electron Energy =                  38.0553187939121997
    Total Energy =                        -75.9814424790829150

  Dipole Moment: [D]
     X:     0.0000      Y:     2.0511      Z:     1.5632     Total:     2.5789

    Molecular point group: cs

    Geometry (in Angstrom), charge = 0, multiplicity = 1:

       Center              X                  Y                   Z               Mass
    ------------   -----------------  -----------------  -----------------  -----------------
         H            0.000000000000     0.000000000000     0.950000000000     1.007825032230
         H            0.000000000000     0.862190561100    -0.258122909400     1.007825032230
         O            0.000000000000     0.000000000000     0.000000000000    15.994914619570

  Basis Set: 6-31G
    Blend: 6-31G

  -Total Gradient:
     Atom            X                  Y                   Z
    ------   -----------------  -----------------  -----------------
       1        0.000000000000     0.010883520462    -0.002415496965
       2        0.000000000000    -0.063654234285     0.031048775753
       3        0.000000000000     0.052770713824    -0.028633278788

*** Psi4 exiting successfully. Buy a developer a beer!
