                               Psi4 1.3.2 release

  ==> Input File <==

--------------------------------------------------------------------------
# density fitted hartree fock
molecule h2o {
0 1
H 0.0000000000 0.0000000000 0.9833333333
H 0.0000000000 0.8570016998 -0.3696744483
O 0.0000000000 0.0000000000 0.0000000000
}

set scf_type pk
set basis 6-31g
gradient('hf')

--------------------------------------------------------------------------

    Molecular point group: cs
  Charge       = 0
  Multiplicity = 1
  Basis Set: 6-31G
    Blend: 6-31G

    Orbital Energies [Eh]
    ---------------------

    Doubly Occupied:

       1Ap   -20.553610     2Ap    -1.346628     3Ap    -0.723991
       4Ap    -0.543465     1App   -0.496836

  @RHF Final Energy:   -75.98380696745778

   => Energetics <=

    Nuclear Repulsion Energy =              9.1713831557707159
    One-Electron Energy =                -122.9813206221941471
    Two-Electron Energy =                  37.8261304989656537
    Total Energy =                        -75.9838069674577810

  Dipole Moment: [D]
     X:    -2.0429      Y:    -1.3883      Z:     0.0000     Total:     2.4700

    Molecular point group: cs

    Geometry (in Angstrom), charge = 0, multiplicity = 1:

       Center              X                  Y                   Z               Mass
    ------------   -----------------  -----------------  -----------------  -----------------
         H            0.047955618320    -0.948994555122     0.000000000000     1.007825032230
         H           -0.809046081480     0.404013226478     0.000000000000     1.007825032230
         O            0.047955618320     0.034338778178     0.000000000000    15.994914619570

  Basis Set: 6-31G
    Blend: 6-31G

  -Total Gradient:
     Atom            X                  Y                   Z
    ------   -----------------  -----------------  -----------------
       1        0.003601185616    -0.035198428842     0.000000000000
       2        0.018810865400    -0.003982176195     0.000000000000
       3       -0.022412051016     0.039180605038     0.000000000000

*** Psi4 exiting successfully. Buy a developer a beer!
