                               Psi4 1.2.1 release

  ==> Input File <==

--------------------------------------------------------------------------
# density-fitted hartree fock energies and gradients with 6-31g
molecule h2o {
0 1
H 0.0000000000 0.0000000000 0.9500000000
H 0.0000000000 0.8927079897 -0.3249191362
O 0.0000000000 0.0000000000 0.0000000000
}

set basis 6-31g

gradient('mp2')
--------------------------------------------------------------------------

    Molecular point group: c2v
  Charge       = 0
  Multiplicity = 1
  Basis Set: 6-31G
    Blend: 6-31G
  Basis Set: (6-31G AUX)
    Blend: CC-PVDZ-JKFIT

    Orbital Energies [Eh]
    ---------------------

    Doubly Occupied:

       1A1   -20.554774     2A1    -1.354064     1B2    -0.723673
       3A1    -0.551120     1B1    -0.499058

  @DF-RHF Final Energy:   -75.98528041392603

   => Energetics <=

    Nuclear Repulsion Energy =              9.2524614549169790
    One-Electron Energy =                -123.1101081479449135
    Two-Electron Energy =                  37.8723662791018967
    Total Energy =                        -75.9852804139260343

  Dipole Moment: [D]
     X:     0.0000      Y:     0.0000      Z:     2.5297     Total:     2.5297

  Basis Set: (6-31G AUX)
    Blend: CC-PVDZ-RI
    Molecular point group: c2v

    Geometry (in Angstrom), charge = 0, multiplicity = 1:

       Center              X                  Y                   Z               Mass
    ------------   -----------------  -----------------  -----------------  -----------------
         H            0.000000000000    -0.778194442078     0.483915467029     1.007825032070
         H           -0.000000000000     0.778194442078     0.483915467029     1.007825032070
         O            0.000000000000     0.000000000000    -0.060982147473    15.994914619560

  Basis Set: 6-31G
    Blend: 6-31G
  Basis Set: (6-31G AUX)
    Blend: CC-PVDZ-JKFIT
  Basis Set: (6-31G AUX)
    Blend: CC-PVDZ-JKFIT
	 Reference Energy          =     -75.9852804139260343 [Eh]
	 Singles Energy            =      -0.0000000000000000 [Eh]
	 Same-Spin Energy          =      -0.0300433735008625 [Eh]
	 Opposite-Spin Energy      =      -0.0977752921319613 [Eh]
	 Correlation Energy        =      -0.1278186656328238 [Eh]
	 Total Energy              =     -76.1130990795588644 [Eh]

	 ================> DF-SCS-MP2 Energies <==================
	-----------------------------------------------------------
	 SCS Same-Spin Scale       =       0.3333333333333333 [-]
	 SCS Opposite-Spin Scale   =       1.2000000000000000 [-]
	 SCS Same-Spin Energy      =      -0.0100144578336208 [Eh]
	 SCS Opposite-Spin Energy  =      -0.1173303505583536 [Eh]
	 SCS Correlation Energy    =      -0.1273448083919744 [Eh]
	 SCS Total Energy          =     -76.1126252223180018 [Eh]
	-----------------------------------------------------------

  -Total Gradient:
     Atom            X                  Y                   Z
    ------   -----------------  -----------------  -----------------
       1       -0.000000000000     0.020545346323    -0.013017403148
       2        0.000000000000    -0.020545346309    -0.013017403140
       3        0.000000000000    -0.000000000015     0.026034806288

*** Psi4 exiting successfully. Buy a developer a beer!
