                               Psi4 1.3.2 release

  ==> Input File <==

--------------------------------------------------------------------------
# density fitted hartree fock
molecule h2o {
noreorient
nocom
0 1
H 0.0000000000 0.0000000000 0.9833333333
H 0.0000000000 0.8263944962 -0.3564717894
O 0.0000000000 0.0000000000 0.0000000000
}

set scf_type pk
set basis 6-31g
gradient('hf')

--------------------------------------------------------------------------

    Molecular point group: cs
  Charge       = 0
  Multiplicity = 1
  Basis Set: 6-31G
    Blend: 6-31G

    Orbital Energies [Eh]
    ---------------------

    Doubly Occupied:

       1Ap   -20.550405     2Ap    -1.356792     3Ap    -0.734145
       4Ap    -0.545727     1App   -0.498068

  @RHF Final Energy:   -75.98119062267486

   => Energetics <=

    Nuclear Repulsion Energy =              9.3451310158712868
    One-Electron Energy =                -123.2823708641834344
    Two-Electron Energy =                  37.9560492256372868
    Total Energy =                        -75.9811906226748590

  Dipole Moment: [D]
     X:     0.0000      Y:     2.0217      Z:     1.4072     Total:     2.4632

    Molecular point group: cs

    Geometry (in Angstrom), charge = 0, multiplicity = 1:

       Center              X                  Y                   Z               Mass
    ------------   -----------------  -----------------  -----------------  -----------------
         H            0.000000000000     0.000000000000     0.983333333300     1.007825032230
         H            0.000000000000     0.826394496200    -0.356471789400     1.007825032230
         O            0.000000000000     0.000000000000     0.000000000000    15.994914619570

  Basis Set: 6-31G
    Blend: 6-31G

  -Total Gradient:
     Atom            X                  Y                   Z
    ------   -----------------  -----------------  -----------------
       1        0.000000000000    -0.002399894288     0.035859769896
       2        0.000000000000    -0.061666374763     0.023744626057
       3        0.000000000000     0.064066269052    -0.059604395953

*** Psi4 exiting successfully. Buy a developer a beer!
