                               Psi4 1.3.2 release

  ==> Input File <==

--------------------------------------------------------------------------
# density fitted hartree fock
molecule h2o {
noreorient
nocom
0 1
H 0.0000000000 0.0000000000 0.9333333333
H 0.0000000000 0.8457233587 -0.3078181290
O 0.0000000000 0.0000000000 0.0000000000
}

set scf_type pk
set basis 6-31g
gradient('hf')

--------------------------------------------------------------------------

    Molecular point group: cs
  Charge       = 0
  Multiplicity = 1
  Basis Set: 6-31G
    Blend: 6-31G

    Orbital Energies [Eh]
    ---------------------

    Doubly Occupied:

       1Ap   -20.548357     2Ap    -1.373124     3Ap    -0.743919
       4Ap    -0.555983     1App   -0.501403

  @RHF Final Energy:   -75.98195322891921

   => Energetics <=

    Nuclear Repulsion Energy =              9.5919404981189142
    One-Electron Energy =                -123.7022150654545953
    Two-Electron Energy =                  38.1283213384164839
    Total Energy =                        -75.9819532289191955

  Dipole Moment: [D]
     X:     0.0000      Y:     2.0460      Z:     1.4614     Total:     2.5143

    Molecular point group: cs

    Geometry (in Angstrom), charge = 0, multiplicity = 1:

       Center              X                  Y                   Z               Mass
    ------------   -----------------  -----------------  -----------------  -----------------
         H            0.000000000000     0.000000000000     0.933333333300     1.007825032230
         H            0.000000000000     0.845723358700    -0.307818129000     1.007825032230
         O            0.000000000000     0.000000000000     0.000000000000    15.994914619570

  Basis Set: 6-31G
    Blend: 6-31G

  -Total Gradient:
     Atom            X                  Y                   Z
    ------   -----------------  -----------------  -----------------
       1        0.000000000000     0.005575853600    -0.019638222031
       2        0.000000000000    -0.061269272503     0.028453658229
       3        0.000000000000     0.055693418903    -0.008815436198

*** Psi4 exiting successfully. Buy a developer a beer!
