                               Psi4 1.3.2 release

  ==> Input File <==

--------------------------------------------------------------------------
# density fitted hartree fock
molecule h2o {
0 1
H 0.0000000000 0.0000000000 1.0000000000
H 0.0000000000 0.7794228634 -0.4500000000
O 0.0000000000 0.0000000000 0.0000000000
}

set scf_type pk
set basis 6-31g
gradient('hf')

--------------------------------------------------------------------------

    Molecular point group: cs
  Charge       = 0
  Multiplicity = 1
  Basis Set: 6-31G
    Blend: 6-31G

    Orbital Energies [Eh]
    ---------------------

    Doubly Occupied:

       1Ap   -20.546251     2Ap    -1.345768     3Ap    -0.738542
       4Ap    -0.532076     1App   -0.493949

  @RHF Final Energy:   -75.97809349532423

   => Energetics <=

    Nuclear Repulsion Energy =              9.2586673764343068
    One-Electron Energy =                -123.1603514208890289
    Two-Electron Energy =                  37.9235905491304948
    Total Energy =                        -75.9780934953242308

  Dipole Moment: [D]
     X:    -1.9672      Y:    -1.2507      Z:     0.0000     Total:     2.3311

    Molecular point group: cs

    Geometry (in Angstrom), charge = 0, multiplicity = 1:

       Center              X                  Y                   Z               Mass
    ------------   -----------------  -----------------  -----------------  -----------------
         H            0.043614505498    -0.969223409846     0.000000000000     1.007825032230
         H           -0.735808357902     0.480776590154     0.000000000000     1.007825032230
         O            0.043614505498     0.030776590154     0.000000000000    15.994914619570

  Basis Set: 6-31G
    Blend: 6-31G

  -Total Gradient:
     Atom            X                  Y                   Z
    ------   -----------------  -----------------  -----------------
       1        0.012525847697    -0.054301592432     0.000000000000
       2        0.061106560653    -0.019209221210     0.000000000000
       3       -0.073632408350     0.073510813642     0.000000000000

*** Psi4 exiting successfully. Buy a developer a beer!
