                               Psi4 1.3.2 release

  ==> Input File <==

--------------------------------------------------------------------------
# density fitted hartree fock
molecule h2o {
0 1
H 0.0000000000 0.0000000000 0.9166666667
H 0.0000000000 0.9027404403 -0.1591774962
O 0.0000000000 0.0000000000 0.0000000000
}

set scf_type pk
set basis 6-31g
gradient('hf')

--------------------------------------------------------------------------

    Molecular point group: c2v
  Charge       = 0
  Multiplicity = 1
  Basis Set: 6-31G
    Blend: 6-31G

    Orbital Energies [Eh]
    ---------------------

    Doubly Occupied:

       1A1   -20.555297     2A1    -1.385035     1B2    -0.724632
       3A1    -0.575505     1B1    -0.505855

  @RHF Final Energy:   -75.97798455993481

   => Energetics <=

    Nuclear Repulsion Energy =              9.6133431975822994
    One-Electron Energy =                -123.6900074466736470
    Two-Electron Energy =                  38.0986796891565547
    Total Energy =                        -75.9779845599347965

  Dipole Moment: [D]
     X:    -0.0000      Y:     0.0000      Z:     2.6871     Total:     2.6871

    Molecular point group: c2v

    Geometry (in Angstrom), charge = 0, multiplicity = 1:

       Center              X                  Y                   Z               Mass
    ------------   -----------------  -----------------  -----------------  -----------------
         H            0.000000000000    -0.702207406220     0.523279272835     1.007825032230
         H           -0.000000000000     0.702207406220     0.523279272835     1.007825032230
         O           -0.000000000000     0.000000000000    -0.065942702734    15.994914619570

  Basis Set: 6-31G
    Blend: 6-31G

  -Total Gradient:
     Atom            X                  Y                   Z
    ------   -----------------  -----------------  -----------------
       1       -0.000000000000     0.054893288670    -0.012076068458
       2        0.000000000000    -0.054893288670    -0.012076068458
       3       -0.000000000000     0.000000000000     0.024152136916

*** Psi4 exiting successfully. Buy a developer a beer!
