                               Psi4 1.3.2 release

  ==> Input File <==

--------------------------------------------------------------------------
# density fitted hartree fock
molecule h2o {
0 1
H 0.0000000000 0.0000000000 0.9500000000
H 0.0000000000 0.8082903769 -0.4666666667
O 0.0000000000 0.0000000000 0.0000000000
}

set scf_type pk
set basis 6-31g
gradient('hf')

--------------------------------------------------------------------------

    Molecular point group: cs
  Charge       = 0
  Multiplicity = 1
  Basis Set: 6-31G
    Blend: 6-31G

    Orbital Energies [Eh]
    ---------------------

    Doubly Occupied:

       1Ap   -20.545057     2Ap    -1.347511     3Ap    -0.743766
       4Ap    -0.533644     1App   -0.494456

  @RHF Final Energy:   -75.98344013185130

   => Energetics <=

    Nuclear Repulsion Energy =              9.3164762306034277
    One-Electron Energy =                -123.2709654691129941
    Two-Electron Energy =                  37.9710491066582705
    Total Energy =                        -75.9834401318512960

  Dipole Moment: [D]
     X:    -2.0049      Y:    -1.1770      Z:     0.0000     Total:     2.3248

    Molecular point group: cs

    Geometry (in Angstrom), charge = 0, multiplicity = 1:

       Center              X                  Y                   Z               Mass
    ------------   -----------------  -----------------  -----------------  -----------------
         H            0.045229857555    -0.922953905624     0.000000000000     1.007825032230
         H           -0.763060519345     0.493712761076     0.000000000000     1.007825032230
         O            0.045229857555     0.027046094376     0.000000000000    15.994914619570

  Basis Set: 6-31G
    Blend: 6-31G

  -Total Gradient:
     Atom            X                  Y                   Z
    ------   -----------------  -----------------  -----------------
       1        0.012424444137    -0.006291409711     0.000000000000
       2        0.018411175726     0.003973002404     0.000000000000
       3       -0.030835619863     0.002318407306     0.000000000000

*** Psi4 exiting successfully. Buy a developer a beer!
