                               Psi4 1.3.2 release

  ==> Input File <==

--------------------------------------------------------------------------
# density fitted hartree fock
molecule h2o {
noreorient
nocom
0 1
H 0.0000000000 0.0000000000 0.9521306472
H 0.0000000000 0.8854192632 -0.3501221182
O 0.0000000000 0.0000000000 0.0000000000
}

set scf_type pk
set basis 6-31g
set e_convergence 10
gradient('hf')

--------------------------------------------------------------------------

    Molecular point group: cs
  Charge       = 0
  Multiplicity = 1
  Basis Set: 6-31G
    Blend: 6-31G

    Orbital Energies [Eh]
    ---------------------

    Doubly Occupied:

       1Ap   -20.553935     2Ap    -1.351162     3Ap    -0.724931
       4Ap    -0.547812     1App   -0.498119

  @RHF Final Energy:   -75.98534598205210

   => Energetics <=

    Nuclear Repulsion Energy =              9.2285536877403942
    One-Electron Energy =                -123.0758816026033173
    Two-Electron Energy =                  37.8619819328108278
    Total Energy =                        -75.9853459820520811

  Dipole Moment: [D]
     X:     0.0000      Y:     2.0683      Z:     1.4063     Total:     2.5011

    Molecular point group: cs

    Geometry (in Angstrom), charge = 0, multiplicity = 1:

       Center              X                  Y                   Z               Mass
    ------------   -----------------  -----------------  -----------------  -----------------
         H            0.000000000000     0.000000000000     0.952130647200     1.007825032230
         H            0.000000000000     0.885419263200    -0.350122118200     1.007825032230
         O            0.000000000000     0.000000000000     0.000000000000    15.994914619570

  Basis Set: 6-31G
    Blend: 6-31G

  -Total Gradient:
     Atom            X                  Y                   Z
    ------   -----------------  -----------------  -----------------
       1        0.000000000000    -0.000254256580     0.002759354511
       2        0.000000000000     0.002472522833    -0.001251125269
       3        0.000000000000    -0.002218266253    -0.001508229242

*** Psi4 exiting successfully. Buy a developer a beer!
