                               Psi4 1.3.2 release

  ==> Input File <==

--------------------------------------------------------------------------
# density fitted hartree fock
molecule h2o {
0 1
H 0.0000000000 0.0000000000 0.9000000000
H 0.0000000000 0.8927079897 -0.3249191362
O 0.0000000000 0.0000000000 0.0000000000
}

set scf_type pk
set basis 6-31g
gradient('hf')

--------------------------------------------------------------------------

    Molecular point group: cs
  Charge       = 0
  Multiplicity = 1
  Basis Set: 6-31G
    Blend: 6-31G

    Orbital Energies [Eh]
    ---------------------

    Doubly Occupied:

       1Ap   -20.549930     2Ap    -1.368695     3Ap    -0.738798
       4Ap    -0.554690     1App   -0.500821

  @RHF Final Energy:   -75.98225418193252

   => Energetics <=

    Nuclear Repulsion Energy =              9.5091565401049465
    One-Electron Energy =                -123.5569539712742397
    Two-Electron Energy =                  38.0655432492367822
    Total Energy =                        -75.9822541819325181

  Dipole Moment: [D]
     X:    -2.0827      Y:    -1.4160      Z:     0.0000     Total:     2.5185

    Molecular point group: cs

    Geometry (in Angstrom), charge = 0, multiplicity = 1:

       Center              X                  Y                   Z               Mass
    ------------   -----------------  -----------------  -----------------  -----------------
         H            0.049953650775    -0.867819948999     0.000000000000     1.007825032230
         H           -0.842754338925     0.357099187201     0.000000000000     1.007825032230
         O            0.049953650775     0.032180051001     0.000000000000    15.994914619570

  Basis Set: 6-31G
    Blend: 6-31G

  -Total Gradient:
     Atom            X                  Y                   Z
    ------   -----------------  -----------------  -----------------
       1       -0.004985546330     0.067578962921     0.000000000000
       2       -0.001751792131    -0.004388669216     0.000000000000
       3        0.006737338461    -0.063190293706     0.000000000000

*** Psi4 exiting successfully. Buy a developer a beer!
