                               Psi4 1.2.1 release

  ==> Input File <==

--------------------------------------------------------------------------
# density-fitted hartree fock energies and gradients with 6-31g
molecule h2o {
0 1
H 0.0000000000 0.0000000000 1.1500000000
H 0.0000000000 1.1108147002 -0.2976419019
O 0.0000000000 0.0000000000 0.0000000000
}

set basis 6-31g

gradient('mp2')
--------------------------------------------------------------------------

    Molecular point group: c2v
  Charge       = 0
  Multiplicity = 1
  Basis Set: 6-31G
    Blend: 6-31G
  Basis Set: (6-31G AUX)
    Blend: CC-PVDZ-JKFIT

    Orbital Energies [Eh]
    ---------------------

    Doubly Occupied:

       1A1   -20.596705     2A1    -1.276593     1B2    -0.617079
       3A1    -0.530861     1B1    -0.495416

  @DF-RHF Final Energy:   -75.93268418925690

   => Energetics <=

    Nuclear Repulsion Energy =              7.6524712819991336
    One-Electron Energy =                -120.1370026764884784
    Two-Electron Energy =                  36.5518472052324341
    Total Energy =                        -75.9326841892569178

  Dipole Moment: [D]
     X:    -0.0000      Y:     0.0000      Z:     2.6396     Total:     2.6396

  Basis Set: (6-31G AUX)
    Blend: CC-PVDZ-RI
    Molecular point group: c2v

    Geometry (in Angstrom), charge = 0, multiplicity = 1:

       Center              X                  Y                   Z               Mass
    ------------   -----------------  -----------------  -----------------  -----------------
         H            0.000000000000    -0.912356341338     0.621726766432     1.007825032070
         H           -0.000000000000     0.912356341338     0.621726766432     1.007825032070
         O           -0.000000000000     0.000000000000    -0.078348876905    15.994914619560

  Basis Set: 6-31G
    Blend: 6-31G
  Basis Set: (6-31G AUX)
    Blend: CC-PVDZ-JKFIT
  Basis Set: (6-31G AUX)
    Blend: CC-PVDZ-JKFIT
	 Reference Energy          =     -75.9326841892569036 [Eh]
	 Singles Energy            =      -0.0000000000000000 [Eh]
	 Same-Spin Energy          =      -0.0339388652412490 [Eh]
	 Opposite-Spin Energy      =      -0.1128337789229339 [Eh]
	 Correlation Energy        =      -0.1467726441641829 [Eh]
	 Total Energy              =     -76.0794568334210908 [Eh]

	 ================> DF-SCS-MP2 Energies <==================
	-----------------------------------------------------------
	 SCS Same-Spin Scale       =       0.3333333333333333 [-]
	 SCS Opposite-Spin Scale   =       1.2000000000000000 [-]
	 SCS Same-Spin Energy      =      -0.0113129550804163 [Eh]
	 SCS Opposite-Spin Energy  =      -0.1354005347075206 [Eh]
	 SCS Correlation Energy    =      -0.1467134897879370 [Eh]
	 SCS Total Energy          =     -76.0793976790448454 [Eh]
	-----------------------------------------------------------

  -Total Gradient:
     Atom            X                  Y                   Z
    ------   -----------------  -----------------  -----------------
       1       -0.000000000000    -0.072059092485     0.047867322075
       2       -0.000000000000     0.072059092486     0.047867322076
       3        0.000000000000    -0.000000000001    -0.095734644151

*** Psi4 exiting successfully. Buy a developer a beer!
