                               Psi4 1.3.2 release

  ==> Input File <==

--------------------------------------------------------------------------
# density fitted hartree fock
molecule h2o {
noreorient
nocom
0 1
H 0.0000000000 0.0000000000 0.9496306472
H 0.0000000000 0.8830944266 -0.3492028060
O 0.0000000000 0.0000000000 0.0000000000
}

set scf_type pk
set basis 6-31g
set e_convergence 10
gradient('hf')

--------------------------------------------------------------------------

    Molecular point group: cs
  Charge       = 0
  Multiplicity = 1
  Basis Set: 6-31G
    Blend: 6-31G

    Orbital Energies [Eh]
    ---------------------

    Doubly Occupied:

       1Ap   -20.553461     2Ap    -1.352497     3Ap    -0.726426
       4Ap    -0.548179     1App   -0.498284

  @RHF Final Energy:   -75.98535915228413

   => Energetics <=

    Nuclear Repulsion Energy =              9.2528488012321652
    One-Electron Energy =                -123.1187228464599031
    Two-Electron Energy =                  37.8805148929436086
    Total Energy =                        -75.9853591522841327

  Dipole Moment: [D]
     X:     0.0000      Y:     2.0674      Z:     1.4057     Total:     2.5000

    Molecular point group: cs

    Geometry (in Angstrom), charge = 0, multiplicity = 1:

       Center              X                  Y                   Z               Mass
    ------------   -----------------  -----------------  -----------------  -----------------
         H            0.000000000000     0.000000000000     0.949630647200     1.007825032230
         H            0.000000000000     0.883094426600    -0.349202806000     1.007825032230
         O            0.000000000000     0.000000000000     0.000000000000    15.994914619570

  Basis Set: 6-31G
    Blend: 6-31G

  -Total Gradient:
     Atom            X                  Y                   Z
    ------   -----------------  -----------------  -----------------
       1        0.000000000000    -0.000051285252     0.000020307891
       2        0.000000000000     0.000000026098    -0.000055159628
       3        0.000000000000     0.000051259154     0.000034851737

*** Psi4 exiting successfully. Buy a developer a beer!
