                               Psi4 1.3.2 release

  ==> Input File <==

--------------------------------------------------------------------------
# density fitted hartree fock
molecule h2o {
0 1
H 0.0000000000 0.0000000000 1.0000000000
H 0.0000000000 0.8936326403 -0.4487991802
O 0.0000000000 0.0000000000 0.0000000000
}

set scf_type pk
set basis 6-31g
gradient('hf')

--------------------------------------------------------------------------

    Molecular point group: c2v
  Charge       = 0
  Multiplicity = 1
  Basis Set: 6-31G
    Blend: 6-31G

    Orbital Energies [Eh]
    ---------------------

    Doubly Occupied:

       1A1   -20.558406     2A1    -1.321909     1B2    -0.704060
       3A1    -0.531303     1B1    -0.492326

  @RHF Final Energy:   -75.97936089721253

   => Energetics <=

    Nuclear Repulsion Energy =              8.7777076799834397
    One-Electron Energy =                -122.2981296712105603
    Two-Electron Energy =                  37.5410610940145872
    Total Energy =                        -75.9793608972125298

  Dipole Moment: [D]
     X:     0.0000      Y:     0.0000      Z:     2.4185     Total:     2.4185

    Molecular point group: c2v

    Geometry (in Angstrom), charge = 0, multiplicity = 1:

       Center              X                  Y                   Z               Mass
    ------------   -----------------  -----------------  -----------------  -----------------
         H            0.000000000000    -0.851116672431     0.466223892858     1.007825032230
         H           -0.000000000000     0.851116672431     0.466223892858     1.007825032230
         O            0.000000000000     0.000000000000    -0.058752687466    15.994914619570

  Basis Set: 6-31G
    Blend: 6-31G

  -Total Gradient:
     Atom            X                  Y                   Z
    ------   -----------------  -----------------  -----------------
       1        0.000000000000    -0.048256586844     0.016496306260
       2       -0.000000000000     0.048256586844     0.016496306260
       3       -0.000000000000     0.000000000000    -0.032992612520

*** Psi4 exiting successfully. Buy a developer a beer!
