                               Psi4 1.3.2 release

  ==> Input File <==

--------------------------------------------------------------------------
# density fitted hartree fock
molecule h2o {
0 1
H 0.0000000000 0.0000000000 0.9166666667
H 0.0000000000 0.8781570530 -0.2629029633
O 0.0000000000 0.0000000000 0.0000000000
}

set scf_type pk
set basis 6-31g
gradient('hf')

--------------------------------------------------------------------------

    Molecular point group: c2v
  Charge       = 0
  Multiplicity = 1
  Basis Set: 6-31G
    Blend: 6-31G

    Orbital Energies [Eh]
    ---------------------

    Doubly Occupied:

       1A1   -20.550771     2A1    -1.376781     1B2    -0.737826
       3A1    -0.562444     1B1    -0.502907

  @RHF Final Energy:   -75.98180813789857

   => Energetics <=

    Nuclear Repulsion Energy =              9.5963952881225048
    One-Electron Energy =                -123.6949497673448661
    Two-Electron Energy =                  38.1167463413237826
    Total Energy =                        -75.9818081378985823

  Dipole Moment: [D]
     X:     0.0000      Y:     0.0000      Z:     2.5749     Total:     2.5749

    Molecular point group: c2v

    Geometry (in Angstrom), charge = 0, multiplicity = 1:

       Center              X                  Y                   Z               Mass
    ------------   -----------------  -----------------  -----------------  -----------------
         H            0.000000000000    -0.735279593378     0.486133691644     1.007825032230
         H           -0.000000000000     0.735279593378     0.486133691644     1.007825032230
         O            0.000000000000     0.000000000000    -0.061261684117    15.994914619570

  Basis Set: 6-31G
    Blend: 6-31G

  -Total Gradient:
     Atom            X                  Y                   Z
    ------   -----------------  -----------------  -----------------
       1       -0.000000000000     0.043002309431    -0.016899595081
       2        0.000000000000    -0.043002309431    -0.016899595081
       3       -0.000000000000     0.000000000000     0.033799190162

*** Psi4 exiting successfully. Buy a developer a beer!
