                               Psi4 1.2.1 release

  ==> Input File <==

--------------------------------------------------------------------------
# density-fitted hartree fock energies and gradients with 6-31g
molecule h2o {
0 1
H 0.0000000000 0.0000000000 0.9000000000
H 0.0000000000 0.8457233587 -0.3078181290
O 0.0000000000 0.0000000000 0.0000000000
}

set basis 6-31g

gradient('mp2')
--------------------------------------------------------------------------

    Molecular point group: c2v
  Charge       = 0
  Multiplicity = 1
  Basis Set: 6-31G
    Blend: 6-31G
  Basis Set: (6-31G AUX)
    Blend: CC-PVDZ-JKFIT

    Orbital Energies [Eh]
    ---------------------

    Doubly Occupied:

       1A1   -20.545179     2A1    -1.382760     1B2    -0.754387
       3A1    -0.558490     1B1    -0.502664

  @DF-RHF Final Energy:   -75.97927555949759

   => Energetics <=

    Nuclear Repulsion Energy =              9.7664870911779182
    One-Electron Energy =                -124.0045647590804663
    Two-Electron Energy =                  38.2588021084049430
    Total Energy =                        -75.9792755594976086

  Dipole Moment: [D]
     X:     0.0000      Y:     0.0000      Z:     2.5056     Total:     2.5056

  Basis Set: (6-31G AUX)
    Blend: CC-PVDZ-RI
    Molecular point group: c2v

    Geometry (in Angstrom), charge = 0, multiplicity = 1:

       Center              X                  Y                   Z               Mass
    ------------   -----------------  -----------------  -----------------  -----------------
         H            0.000000000000    -0.737236839861     0.458446231944     1.007825032070
         H           -0.000000000000     0.737236839861     0.458446231944     1.007825032070
         O            0.000000000000     0.000000000000    -0.057772560767    15.994914619560

  Basis Set: 6-31G
    Blend: 6-31G
  Basis Set: (6-31G AUX)
    Blend: CC-PVDZ-JKFIT
  Basis Set: (6-31G AUX)
    Blend: CC-PVDZ-JKFIT
	 Reference Energy          =     -75.9792755594975944 [Eh]
	 Singles Energy            =      -0.0000000000000000 [Eh]
	 Same-Spin Energy          =      -0.0290119583244980 [Eh]
	 Opposite-Spin Energy      =      -0.0943381972101918 [Eh]
	 Correlation Energy        =      -0.1233501555346899 [Eh]
	 Total Energy              =     -76.1026257150322891 [Eh]

	 ================> DF-SCS-MP2 Energies <==================
	-----------------------------------------------------------
	 SCS Same-Spin Scale       =       0.3333333333333333 [-]
	 SCS Opposite-Spin Scale   =       1.2000000000000000 [-]
	 SCS Same-Spin Energy      =      -0.0096706527748327 [Eh]
	 SCS Opposite-Spin Energy  =      -0.1132058366522302 [Eh]
	 SCS Correlation Energy    =      -0.1228764894270629 [Eh]
	 SCS Total Energy          =     -76.1021520489246512 [Eh]
	-----------------------------------------------------------

  -Total Gradient:
     Atom            X                  Y                   Z
    ------   -----------------  -----------------  -----------------
       1        0.000000000000     0.077714989249    -0.046605814687
       2       -0.000000000000    -0.077714989259    -0.046605814694
       3       -0.000000000000     0.000000000010     0.093211629381

*** Psi4 exiting successfully. Buy a developer a beer!
