                               Psi4 1.3.2 release

  ==> Input File <==

--------------------------------------------------------------------------
# density fitted hartree fock
molecule h2o {
0 1
H 0.0000000000 0.0000000000 0.9833333333
H 0.0000000000 0.8936326403 -0.4487991802
O 0.0000000000 0.0000000000 0.0000000000
}

set scf_type pk
set basis 6-31g
gradient('hf')

--------------------------------------------------------------------------

    Molecular point group: cs
  Charge       = 0
  Multiplicity = 1
  Basis Set: 6-31G
    Blend: 6-31G

    Orbital Energies [Eh]
    ---------------------

    Doubly Occupied:

       1Ap   -20.556893     2Ap    -1.325876     3Ap    -0.708879
       4Ap    -0.532489     1App   -0.492818

  @RHF Final Energy:   -75.98071297585395

   => Energetics <=

    Nuclear Repulsion Energy =              8.8520686836046707
    One-Electron Energy =                -122.4316515433937695
    Two-Electron Energy =                  37.5988698839351514
    Total Energy =                        -75.9807129758539475

  Dipole Moment: [D]
     X:    -2.0631      Y:    -1.2570      Z:     0.0000     Total:     2.4159

    Molecular point group: cs

    Geometry (in Angstrom), charge = 0, multiplicity = 1:

       Center              X                  Y                   Z               Mass
    ------------   -----------------  -----------------  -----------------  -----------------
         H            0.050005391853    -0.953422172294     0.000000000000     1.007825032230
         H           -0.843627248447     0.478710341206     0.000000000000     1.007825032230
         O            0.050005391853     0.029911161006     0.000000000000    15.994914619570

  Basis Set: 6-31G
    Blend: 6-31G

  -Total Gradient:
     Atom            X                  Y                   Z
    ------   -----------------  -----------------  -----------------
       1        0.010934482819    -0.035848050379     0.000000000000
       2       -0.039962436875     0.032101950864     0.000000000000
       3        0.029027954056     0.003746099515     0.000000000000

*** Psi4 exiting successfully. Buy a developer a beer!
