                               Psi4 1.3.2 release

  ==> Input File <==

--------------------------------------------------------------------------
# density fitted hartree fock
molecule h2o {
0 1
H 0.0000000000 0.0000000000 1.0000000000
H 0.0000000000 0.9240310771 -0.3363198076
O 0.0000000000 0.0000000000 0.0000000000
}

set scf_type pk
set basis 6-31g
gradient('hf')

--------------------------------------------------------------------------

    Molecular point group: cs
  Charge       = 0
  Multiplicity = 1
  Basis Set: 6-31G
    Blend: 6-31G

    Orbital Energies [Eh]
    ---------------------

    Doubly Occupied:

       1Ap   -20.562751     2Ap    -1.332927     3Ap    -0.699772
       4Ap    -0.545008     1App   -0.496667

  @RHF Final Energy:   -75.98199620804073

   => Energetics <=

    Nuclear Repulsion Energy =              8.8642999316112956
    One-Electron Energy =                -122.4183423509992537
    Two-Electron Energy =                  37.5720462113472280
    Total Energy =                        -75.9819962080407265

  Dipole Moment: [D]
     X:    -2.0792      Y:    -1.4674      Z:     0.0000     Total:     2.5449

    Molecular point group: cs

    Geometry (in Angstrom), charge = 0, multiplicity = 1:

       Center              X                  Y                   Z               Mass
    ------------   -----------------  -----------------  -----------------  -----------------
         H            0.051706410454    -0.962862157682     0.000000000000     1.007825032230
         H           -0.872324666646     0.373457649918     0.000000000000     1.007825032230
         O            0.051706410454     0.037137842318     0.000000000000    15.994914619570

  Basis Set: 6-31G
    Blend: 6-31G

  -Total Gradient:
     Atom            X                  Y                   Z
    ------   -----------------  -----------------  -----------------
       1        0.000652402299    -0.046030164629     0.000000000000
       2       -0.029720646956     0.011523469289     0.000000000000
       3        0.029068244657     0.034506695341     0.000000000000

*** Psi4 exiting successfully. Buy a developer a beer!
