                               Psi4 1.3.2 release

  ==> Input File <==

--------------------------------------------------------------------------
# density fitted hartree fock
molecule h2o {
0 1
H 0.0000000000 0.0000000000 0.9666666667
H 0.0000000000 0.8371578903 -0.4833333333
O 0.0000000000 0.0000000000 0.0000000000
}

set scf_type pk
set basis 6-31g
gradient('hf')

--------------------------------------------------------------------------

    Molecular point group: c2v
  Charge       = 0
  Multiplicity = 1
  Basis Set: 6-31G
    Blend: 6-31G

    Orbital Energies [Eh]
    ---------------------

    Doubly Occupied:

       1A1   -20.549436     2A1    -1.334454     1B2    -0.728063
       3A1    -0.529982     1B1    -0.492520

  @RHF Final Energy:   -75.98264380525985

   => Energetics <=

    Nuclear Repulsion Energy =              9.0748510094206409
    One-Electron Energy =                -122.8460789543093483
    Two-Electron Energy =                  37.7885841396288527
    Total Energy =                        -75.9826438052598547

  Dipole Moment: [D]
     X:    -0.0000      Y:     0.0000      Z:     2.3363     Total:     2.3363

    Molecular point group: c2v

    Geometry (in Angstrom), charge = 0, multiplicity = 1:

       Center              X                  Y                   Z               Mass
    ------------   -----------------  -----------------  -----------------  -----------------
         H            0.000000000000    -0.837157890319     0.429241144583     1.007825032230
         H           -0.000000000000     0.837157890319     0.429241144583     1.007825032230
         O           -0.000000000000     0.000000000000    -0.054092188757    15.994914619570

  Basis Set: 6-31G
    Blend: 6-31G

  -Total Gradient:
     Atom            X                  Y                   Z
    ------   -----------------  -----------------  -----------------
       1        0.000000000000    -0.026896093825    -0.000632483117
       2       -0.000000000000     0.026896093825    -0.000632483117
       3       -0.000000000000     0.000000000000     0.001264966234

*** Psi4 exiting successfully. Buy a developer a beer!
