                               Psi4 1.3.1 release

  ==> Input File <==

--------------------------------------------------------------------------
# density fitted hartree fock
molecule h2o {
0 1
H 0.0000000000 0.0000000000 0.9666666667
H 0.0000000000 0.8371578903 -0.4833333333
O 0.0000000000 0.0000000000 0.0000000000
}

set basis 6-31g
energy('hf')

--------------------------------------------------------------------------

    Molecular point group: c2v

    Geometry (in Angstrom), charge = 0, multiplicity = 1:

       Center              X                  Y                   Z               Mass
    ------------   -----------------  -----------------  -----------------  -----------------
         H            0.000000000000    -0.837157890319     0.429241144583     1.007825032230
         H           -0.000000000000     0.837157890319     0.429241144583     1.007825032230
         O           -0.000000000000     0.000000000000    -0.054092188757    15.994914619570

  Charge       = 0
  Multiplicity = 1
  Basis Set: 6-31G
    Blend: 6-31G
  Basis Set: (6-31G AUX)
    Blend: CC-PVDZ-JKFIT

    Orbital Energies [Eh]
    ---------------------

    Doubly Occupied:

       1A1   -20.549431     2A1    -1.334452     1B2    -0.728058
       3A1    -0.529977     1B1    -0.492513

  @DF-RHF Final Energy:   -75.98262717637986

   => Energetics <=

    Nuclear Repulsion Energy =              9.0748510094206409
    One-Electron Energy =                -122.8460870294687339
    Two-Electron Energy =                  37.7886088436682286
    Total Energy =                        -75.9826271763798644

  Dipole Moment: [D]
     X:    -0.0000      Y:     0.0000      Z:     2.3363     Total:     2.3363

*** Psi4 exiting successfully. Buy a developer a beer!
