                               Psi4 1.3.2 release

  ==> Input File <==

--------------------------------------------------------------------------
# density fitted hartree fock
molecule h2o {
0 1
H 0.0000000000 0.0000000000 0.9333333333
H 0.0000000000 0.8082903769 -0.4666666667
O 0.0000000000 0.0000000000 0.0000000000
}

set scf_type pk
set basis 6-31g
gradient('hf')

--------------------------------------------------------------------------

    Molecular point group: c2v
  Charge       = 0
  Multiplicity = 1
  Basis Set: 6-31G
    Blend: 6-31G

    Orbital Energies [Eh]
    ---------------------

    Doubly Occupied:

       1A1   -20.543608     2A1    -1.351944     1B2    -0.749132
       3A1    -0.534888     1B1    -0.495142

  @RHF Final Energy:   -75.98333271929422

   => Energetics <=

    Nuclear Repulsion Energy =              9.3989528310922097
    One-Electron Energy =                -123.4151436015580288
    Two-Electron Energy =                  38.0328580511715870
    Total Energy =                        -75.9833327192942249

  Dipole Moment: [D]
     X:    -0.0000      Y:     0.0000      Z:     2.3206     Total:     2.3206

    Molecular point group: c2v

    Geometry (in Angstrom), charge = 0, multiplicity = 1:

       Center              X                  Y                   Z               Mass
    ------------   -----------------  -----------------  -----------------  -----------------
         H            0.000000000000    -0.808290376874     0.414439725797     1.007825032230
         H           -0.000000000000     0.808290376874     0.414439725797     1.007825032230
         O           -0.000000000000     0.000000000000    -0.052226940868    15.994914619570

  Basis Set: 6-31G
    Blend: 6-31G

  -Total Gradient:
     Atom            X                  Y                   Z
    ------   -----------------  -----------------  -----------------
       1       -0.000000000000     0.005687663153    -0.017143052125
       2        0.000000000000    -0.005687663153    -0.017143052125
       3        0.000000000000     0.000000000000     0.034286104250

*** Psi4 exiting successfully. Buy a developer a beer!
