                               Psi4 1.2.1 release

  ==> Input File <==

--------------------------------------------------------------------------
# density-fitted hartree fock energies and gradients with 6-31g
molecule h2o {
0 1
H 0.0000000000 0.0000000000 1.1000000000
H 0.0000000000 1.0336618829 -0.3762221577
O 0.0000000000 0.0000000000 0.0000000000
}

set basis 6-31g

gradient('mp2')
--------------------------------------------------------------------------

    Molecular point group: c2v
  Charge       = 0
  Multiplicity = 1
  Basis Set: 6-31G
    Blend: 6-31G
  Basis Set: (6-31G AUX)
    Blend: CC-PVDZ-JKFIT

    Orbital Energies [Eh]
    ---------------------

    Doubly Occupied:

       1A1   -20.582984     2A1    -1.288189     1B2    -0.644441
       3A1    -0.529287     1B1    -0.492798

  @DF-RHF Final Energy:   -75.95195062106247

   => Energetics <=

    Nuclear Repulsion Energy =              7.9907621653145942
    One-Electron Energy =                -120.8100294978190163
    Two-Electron Energy =                  36.8673167114419584
    Total Energy =                        -75.9519506210624655

  Dipole Moment: [D]
     X:     0.0000      Y:     0.0000      Z:     2.5587     Total:     2.5587

  Basis Set: (6-31G AUX)
    Blend: CC-PVDZ-RI
    Molecular point group: c2v

    Geometry (in Angstrom), charge = 0, multiplicity = 1:

       Center              X                  Y                   Z               Mass
    ------------   -----------------  -----------------  -----------------  -----------------
         H            0.000000000000    -0.901067248745     0.560323172384     1.007825032070
         H           -0.000000000000     0.901067248745     0.560323172384     1.007825032070
         O           -0.000000000000     0.000000000000    -0.070610907605    15.994914619560

  Basis Set: 6-31G
    Blend: 6-31G
  Basis Set: (6-31G AUX)
    Blend: CC-PVDZ-JKFIT
  Basis Set: (6-31G AUX)
    Blend: CC-PVDZ-JKFIT
	 Reference Energy          =     -75.9519506210624655 [Eh]
	 Singles Energy            =      -0.0000000000000000 [Eh]
	 Same-Spin Energy          =      -0.0329301665614712 [Eh]
	 Opposite-Spin Energy      =      -0.1084729076828188 [Eh]
	 Correlation Energy        =      -0.1414030742442901 [Eh]
	 Total Energy              =     -76.0933536953067602 [Eh]

	 ================> DF-SCS-MP2 Energies <==================
	-----------------------------------------------------------
	 SCS Same-Spin Scale       =       0.3333333333333333 [-]
	 SCS Opposite-Spin Scale   =       1.2000000000000000 [-]
	 SCS Same-Spin Energy      =      -0.0109767221871571 [Eh]
	 SCS Opposite-Spin Energy  =      -0.1301674892193826 [Eh]
	 SCS Correlation Energy    =      -0.1411442114065397 [Eh]
	 SCS Total Energy          =     -76.0930948324690064 [Eh]
	-----------------------------------------------------------

  -Total Gradient:
     Atom            X                  Y                   Z
    ------   -----------------  -----------------  -----------------
       1        0.000000000000    -0.067253712067     0.035062875326
       2       -0.000000000000     0.067253712063     0.035062875324
       3        0.000000000000     0.000000000004    -0.070125750650

*** Psi4 exiting successfully. Buy a developer a beer!
