                               Psi4 1.2.1 release

  ==> Input File <==

--------------------------------------------------------------------------
# density-fitted hartree fock energies and gradients with 6-31g
molecule h2o {
0 1
H 0.0000000000 0.0000000000 1.0500000000
H 0.0000000000 1.0625184089 -0.2847009496
O 0.0000000000 0.0000000000 0.0000000000
}

set basis 6-31g

gradient('mp2')
--------------------------------------------------------------------------

    Molecular point group: cs
  Charge       = 0
  Multiplicity = 1
  Basis Set: 6-31G
    Blend: 6-31G
  Basis Set: (6-31G AUX)
    Blend: CC-PVDZ-JKFIT

    Orbital Energies [Eh]
    ---------------------

    Doubly Occupied:

       1Ap   -20.582880     2Ap    -1.302575     3Ap    -0.650523
       4Ap    -0.541905     1App   -0.496568

  @DF-RHF Final Energy:   -75.96073875328467

   => Energetics <=

    Nuclear Repulsion Energy =              8.1905772161305368
    One-Electron Energy =                -121.1537325418054536
    Two-Electron Energy =                  37.0024165723902456
    Total Energy =                        -75.9607387532846730

  Dipole Moment: [D]
     X:    -2.1059      Y:    -1.6026      Z:     0.0000     Total:     2.6463

  Basis Set: (6-31G AUX)
    Blend: CC-PVDZ-RI
    Molecular point group: cs

    Geometry (in Angstrom), charge = 0, multiplicity = 1:

       Center              X                  Y                   Z               Mass
    ------------   -----------------  -----------------  -----------------  -----------------
         H            0.059455806541    -1.007175826880     0.000000000000     1.007825032070
         H           -1.003062602359     0.327525122720     0.000000000000     1.007825032070
         O            0.059455806541     0.042824173120     0.000000000000    15.994914619560

  Basis Set: 6-31G
    Blend: 6-31G
  Basis Set: (6-31G AUX)
    Blend: CC-PVDZ-JKFIT
  Basis Set: (6-31G AUX)
    Blend: CC-PVDZ-JKFIT
	 Reference Energy          =     -75.9607387532846730 [Eh]
	 Singles Energy            =      -0.0000000000000000 [Eh]
	 Same-Spin Energy          =      -0.0325002833017545 [Eh]
	 Opposite-Spin Energy      =      -0.1071064073816883 [Eh]
	 Correlation Energy        =      -0.1396066906834429 [Eh]
	 Total Energy              =     -76.1003454439681093 [Eh]

	 ================> DF-SCS-MP2 Energies <==================
	-----------------------------------------------------------
	 SCS Same-Spin Scale       =       0.3333333333333333 [-]
	 SCS Opposite-Spin Scale   =       1.2000000000000000 [-]
	 SCS Same-Spin Energy      =      -0.0108334277672515 [Eh]
	 SCS Opposite-Spin Energy  =      -0.1285276888580260 [Eh]
	 SCS Correlation Energy    =      -0.1393611166252775 [Eh]
	 SCS Total Energy          =     -76.1000998699099540 [Eh]
	-----------------------------------------------------------

  -Total Gradient:
     Atom            X                  Y                   Z
    ------   -----------------  -----------------  -----------------
       1        0.001478011619    -0.049309682812    -0.000000000000
       2       -0.070486081488     0.020347285566    -0.000000000000
       3        0.069008069869     0.028962397246     0.000000000000

*** Psi4 exiting successfully. Buy a developer a beer!
