                               Psi4 1.3.2 release

  ==> Input File <==

--------------------------------------------------------------------------
# density fitted hartree fock
molecule h2o {
0 1
H 0.0000000000 0.0000000000 0.9500000000
H 0.0000000000 0.8770464461 -0.3192188004
O 0.0000000000 0.0000000000 0.0000000000
}

set scf_type pk
set basis 6-31g
gradient('hf')

--------------------------------------------------------------------------

    Molecular point group: cs
  Charge       = 0
  Multiplicity = 1
  Basis Set: 6-31G
    Blend: 6-31G

    Orbital Energies [Eh]
    ---------------------

    Doubly Occupied:

       1Ap   -20.553170     2Ap    -1.358675     3Ap    -0.728650
       4Ap    -0.552335     1App   -0.499616

  @RHF Final Energy:   -75.98496963132999

   => Energetics <=

    Nuclear Repulsion Energy =              9.3350393042730957
    One-Electron Energy =                -123.2551259735470239
    Two-Electron Energy =                  37.9351170379439395
    Total Energy =                        -75.9849696313299887

  Dipole Moment: [D]
     X:    -2.0629      Y:    -1.4580      Z:     0.0000     Total:     2.5261

    Molecular point group: cs

    Geometry (in Angstrom), charge = 0, multiplicity = 1:

       Center              X                  Y                   Z               Mass
    ------------   -----------------  -----------------  -----------------  -----------------
         H            0.049077270942    -0.914703100987     0.000000000000     1.007825032230
         H           -0.827969175158     0.354515699413     0.000000000000     1.007825032230
         O            0.049077270942     0.035296899013     0.000000000000    15.994914619570

  Basis Set: 6-31G
    Blend: 6-31G

  -Total Gradient:
     Atom            X                  Y                   Z
    ------   -----------------  -----------------  -----------------
       1       -0.003347587392     0.000387623275     0.000000000000
       2        0.018042331311    -0.010192914915     0.000000000000
       3       -0.014694743919     0.009805291640     0.000000000000

*** Psi4 exiting successfully. Buy a developer a beer!
