                               Psi4 1.3.2 release

  ==> Input File <==

--------------------------------------------------------------------------
# density fitted hartree fock
molecule h2o {
0 1
H 0.0000000000 0.0000000000 0.9666666667
H 0.0000000000 0.9579895123 -0.2868032327
O 0.0000000000 0.0000000000 0.0000000000
}

set scf_type pk
set basis 6-31g
gradient('hf')

--------------------------------------------------------------------------

    Molecular point group: cs
  Charge       = 0
  Multiplicity = 1
  Basis Set: 6-31G
    Blend: 6-31G

    Orbital Energies [Eh]
    ---------------------

    Doubly Occupied:

       1Ap   -20.563859     2Ap    -1.340787     3Ap    -0.699355
       4Ap    -0.552538     1App   -0.498926

  @RHF Final Energy:   -75.98245680427812

   => Energetics <=

    Nuclear Repulsion Energy =              8.9482397521323236
    One-Electron Energy =                -122.5504634584870018
    Two-Electron Energy =                  37.6197669020765701
    Total Energy =                        -75.9824568042781152

  Dipole Moment: [D]
     X:    -2.0964      Y:    -1.5413      Z:     0.0000     Total:     2.6021

    Molecular point group: cs

    Geometry (in Angstrom), charge = 0, multiplicity = 1:

       Center              X                  Y                   Z               Mass
    ------------   -----------------  -----------------  -----------------  -----------------
         H            0.053606637440    -0.928623251665     0.000000000000     1.007825032230
         H           -0.904382874860     0.324846647735     0.000000000000     1.007825032230
         O            0.053606637440     0.038043415035     0.000000000000    15.994914619570

  Basis Set: 6-31G
    Blend: 6-31G

  -Total Gradient:
     Atom            X                  Y                   Z
    ------   -----------------  -----------------  -----------------
       1       -0.005785481212    -0.014059248569     0.000000000000
       2       -0.043759341909     0.007262804107     0.000000000000
       3        0.049544823121     0.006796444461     0.000000000000

*** Psi4 exiting successfully. Buy a developer a beer!
