                               Psi4 1.3.2 release

  ==> Input File <==

--------------------------------------------------------------------------
# density fitted hartree fock
molecule h2o {
noreorient
nocom
0 1
H 0.0000000000 0.0000000000 0.9666666667
H 0.0000000000 0.9848077530 -0.1736481777
O 0.0000000000 0.0000000000 0.0000000000
}

set scf_type pk
set basis 6-31g
gradient('hf')

--------------------------------------------------------------------------

    Molecular point group: cs
  Charge       = 0
  Multiplicity = 1
  Basis Set: 6-31G
    Blend: 6-31G

    Orbital Energies [Eh]
    ---------------------

    Doubly Occupied:

       1Ap   -20.568956     2Ap    -1.348103     3Ap    -0.688188
       4Ap    -0.565418     1App   -0.502369

  @RHF Final Energy:   -75.97990321189883

   => Energetics <=

    Nuclear Repulsion Energy =              8.9640298349484144
    One-Electron Energy =                -122.5417973196290973
    Two-Electron Energy =                  37.5978642727818624
    Total Energy =                        -75.9799032118988151

  Dipole Moment: [D]
     X:     0.0000      Y:     2.0839      Z:     1.7379     Total:     2.7134

    Molecular point group: cs

    Geometry (in Angstrom), charge = 0, multiplicity = 1:

       Center              X                  Y                   Z               Mass
    ------------   -----------------  -----------------  -----------------  -----------------
         H            0.000000000000     0.000000000000     0.966666666700     1.007825032230
         H            0.000000000000     0.984807753000    -0.173648177700     1.007825032230
         O            0.000000000000     0.000000000000     0.000000000000    15.994914619570

  Basis Set: 6-31G
    Blend: 6-31G

  -Total Gradient:
     Atom            X                  Y                   Z
    ------   -----------------  -----------------  -----------------
       1        0.000000000000     0.018439375507     0.009439162912
       2        0.000000000000     0.041573293332     0.010769210554
       3        0.000000000000    -0.060012668839    -0.020208373465

*** Psi4 exiting successfully. Buy a developer a beer!
