                               Psi4 1.3.2 release

  ==> Input File <==

--------------------------------------------------------------------------
# density fitted hartree fock
molecule h2o {
noreorient
nocom
0 1
H 0.0000000000 0.0000000000 0.9166666667
H 0.0000000000 0.8919577980 -0.2113978815
O 0.0000000000 0.0000000000 0.0000000000
}

set scf_type pk
set basis 6-31g
gradient('hf')

--------------------------------------------------------------------------

    Molecular point group: cs
  Charge       = 0
  Multiplicity = 1
  Basis Set: 6-31G
    Blend: 6-31G

    Orbital Energies [Eh]
    ---------------------

    Doubly Occupied:

       1Ap   -20.553080     2Ap    -1.380858     3Ap    -0.731400
       4Ap    -0.568937     1App   -0.504399

  @RHF Final Energy:   -75.98024701037956

   => Energetics <=

    Nuclear Repulsion Energy =              9.6045185474700645
    One-Electron Energy =                -123.6921823590260487
    Two-Electron Energy =                  38.1074168011764272
    Total Energy =                        -75.9802470103795571

  Dipole Moment: [D]
     X:     0.0000      Y:     2.0649      Z:     1.6327     Total:     2.6325

    Molecular point group: cs

    Geometry (in Angstrom), charge = 0, multiplicity = 1:

       Center              X                  Y                   Z               Mass
    ------------   -----------------  -----------------  -----------------  -----------------
         H            0.000000000000     0.000000000000     0.916666666700     1.007825032230
         H            0.000000000000     0.891957798000    -0.211397881500     1.007825032230
         O            0.000000000000     0.000000000000     0.000000000000    15.994914619570

  Basis Set: 6-31G
    Blend: 6-31G

  -Total Gradient:
     Atom            X                  Y                   Z
    ------   -----------------  -----------------  -----------------
       1        0.000000000000     0.018916005976    -0.047147549145
       2        0.000000000000    -0.041514349760     0.029279095709
       3        0.000000000000     0.022598343784     0.017868453436

*** Psi4 exiting successfully. Buy a developer a beer!
