                               Psi4 1.2.1 release

  ==> Input File <==

--------------------------------------------------------------------------
# density-fitted hartree fock energies and gradients with 6-31g
molecule h2o {
0 1
H 0.0000000000 0.0000000000 1.0000000000
H 0.0000000000 0.9396926208 -0.3420201433
O 0.0000000000 0.0000000000 0.0000000000
}

set basis 6-31g

gradient('mp2')
--------------------------------------------------------------------------

    Molecular point group: c2v
  Charge       = 0
  Multiplicity = 1
  Basis Set: 6-31G
    Blend: 6-31G
  Basis Set: (6-31G AUX)
    Blend: CC-PVDZ-JKFIT

    Orbital Energies [Eh]
    ---------------------

    Doubly Occupied:

       1A1   -20.564343     2A1    -1.328898     1B2    -0.695148
       3A1    -0.543804     1B1    -0.496238

  @DF-RHF Final Energy:   -75.98075261673532

   => Energetics <=

    Nuclear Repulsion Energy =              8.7898383820228556
    One-Electron Energy =                -122.2843188676693273
    Two-Electron Energy =                  37.5137278689111682
    Total Energy =                        -75.9807526167353160

  Dipole Moment: [D]
     X:     0.0000      Y:     0.0000      Z:     2.5473     Total:     2.5473

  Basis Set: (6-31G AUX)
    Blend: CC-PVDZ-RI
    Molecular point group: c2v

    Geometry (in Angstrom), charge = 0, multiplicity = 1:

       Center              X                  Y                   Z               Mass
    ------------   -----------------  -----------------  -----------------  -----------------
         H            0.000000000000    -0.819152044283     0.509384702176     1.007825032070
         H           -0.000000000000     0.819152044283     0.509384702176     1.007825032070
         O            0.000000000000     0.000000000000    -0.064191734188    15.994914619560

  Basis Set: 6-31G
    Blend: 6-31G
  Basis Set: (6-31G AUX)
    Blend: CC-PVDZ-JKFIT
  Basis Set: (6-31G AUX)
    Blend: CC-PVDZ-JKFIT
	 Reference Energy          =     -75.9807526167353160 [Eh]
	 Singles Energy            =      -0.0000000000000000 [Eh]
	 Same-Spin Energy          =      -0.0310381578190673 [Eh]
	 Opposite-Spin Energy      =      -0.1012604426980691 [Eh]
	 Correlation Energy        =      -0.1322986005171363 [Eh]
	 Total Energy              =     -76.1130512172524476 [Eh]

	 ================> DF-SCS-MP2 Energies <==================
	-----------------------------------------------------------
	 SCS Same-Spin Scale       =       0.3333333333333333 [-]
	 SCS Opposite-Spin Scale   =       1.2000000000000000 [-]
	 SCS Same-Spin Energy      =      -0.0103460526063558 [Eh]
	 SCS Opposite-Spin Energy  =      -0.1215125312376829 [Eh]
	 SCS Correlation Energy    =      -0.1318585838440386 [Eh]
	 SCS Total Energy          =     -76.1126112005793516 [Eh]
	-----------------------------------------------------------

  -Total Gradient:
     Atom            X                  Y                   Z
    ------   -----------------  -----------------  -----------------
       1        0.000000000000    -0.019929737392     0.009897145935
       2        0.000000000000     0.019929737398     0.009897145938
       3       -0.000000000000    -0.000000000006    -0.019794291873

*** Psi4 exiting successfully. Buy a developer a beer!
