                               Psi4 1.3.2 release

  ==> Input File <==

--------------------------------------------------------------------------
# density fitted hartree fock
molecule h2o {
0 1
O
H 1 0.96
H 1 0.96 2 104.5
}

set basis 6-31g
set scf_type pk
gradient('hf')
--------------------------------------------------------------------------

    Molecular point group: c2v
  Charge       = 0
  Multiplicity = 1
  Basis Set: 6-31G
    Blend: 6-31G

    Orbital Energies [Eh]
    ---------------------

    Doubly Occupied:

       1A1   -20.560950     2A1    -1.354919     1B2    -0.708629
       3A1    -0.560244     1B1    -0.501236

  @RHF Final Energy:   -75.98394029875084

   => Energetics <=

    Nuclear Repulsion Energy =              9.1681932964243487
    One-Electron Energy =                -122.9323117955620432
    Two-Electron Energy =                  37.7801782003868496
    Total Energy =                        -75.9839402987508379

  Dipole Moment: [D]
     X:     0.0000      Y:     0.0000      Z:     2.6315     Total:     2.6315

    Molecular point group: c2v

    Geometry (in Angstrom), charge = 0, multiplicity = 1:

       Center              X                  Y                   Z               Mass
    ------------   -----------------  -----------------  -----------------  -----------------
         O            0.000000000000     0.000000000000    -0.065775570547    15.994914619570
         H            0.000000000000    -0.759061990794     0.521953018286     1.007825032230
         H            0.000000000000     0.759061990794     0.521953018286     1.007825032230

  Basis Set: 6-31G
    Blend: 6-31G

  -Total Gradient:
     Atom            X                  Y                   Z
    ------   -----------------  -----------------  -----------------
       1       -0.000000000000     0.000000000000    -0.026266912221
       2       -0.000000000000     0.002405059631     0.013133456110
       3        0.000000000000    -0.002405059631     0.013133456110

*** Psi4 exiting successfully. Buy a developer a beer!
