                               Psi4 1.2.1 release

  ==> Input File <==

--------------------------------------------------------------------------
# density-fitted hartree fock energies and gradients with 6-31g
molecule h2o {
0 1
H 0.0000000000 0.0000000000 0.9000000000
H 0.0000000000 0.9659258263 -0.2588190451
O 0.0000000000 0.0000000000 0.0000000000
}

set basis 6-31g

gradient('mp2')
--------------------------------------------------------------------------

    Molecular point group: cs
  Charge       = 0
  Multiplicity = 1
  Basis Set: 6-31G
    Blend: 6-31G
  Basis Set: (6-31G AUX)
    Blend: CC-PVDZ-JKFIT

    Orbital Energies [Eh]
    ---------------------

    Doubly Occupied:

       1Ap   -20.558385     2Ap    -1.362523     3Ap    -0.715629
       4Ap    -0.560150     1App   -0.501769

  @DF-RHF Final Energy:   -75.97876973691643

   => Energetics <=

    Nuclear Repulsion Energy =              9.2879887567760377
    One-Electron Energy =                -123.1366066006666387
    Two-Electron Energy =                  37.8698481069741462
    Total Energy =                        -75.9787697369164476

  Dipole Moment: [D]
     X:    -2.1060      Y:    -1.5556      Z:     0.0000     Total:     2.6183

  Basis Set: (6-31G AUX)
    Blend: CC-PVDZ-RI
    Molecular point group: cs

    Geometry (in Angstrom), charge = 0, multiplicity = 1:

       Center              X                  Y                   Z               Mass
    ------------   -----------------  -----------------  -----------------  -----------------
         H            0.054050733220    -0.864121157344     0.000000000000     1.007825032070
         H           -0.911875093080     0.294697887756     0.000000000000     1.007825032070
         O            0.054050733220     0.035878842656     0.000000000000    15.994914619560

  Basis Set: 6-31G
    Blend: 6-31G
  Basis Set: (6-31G AUX)
    Blend: CC-PVDZ-JKFIT
  Basis Set: (6-31G AUX)
    Blend: CC-PVDZ-JKFIT
	 Reference Energy          =     -75.9787697369164334 [Eh]
	 Singles Energy            =      -0.0000000000000000 [Eh]
	 Same-Spin Energy          =      -0.0299508270237904 [Eh]
	 Opposite-Spin Energy      =      -0.0980375755565095 [Eh]
	 Correlation Energy        =      -0.1279884025802999 [Eh]
	 Total Energy              =     -76.1067581394967334 [Eh]

	 ================> DF-SCS-MP2 Energies <==================
	-----------------------------------------------------------
	 SCS Same-Spin Scale       =       0.3333333333333333 [-]
	 SCS Opposite-Spin Scale   =       1.2000000000000000 [-]
	 SCS Same-Spin Energy      =      -0.0099836090079301 [Eh]
	 SCS Opposite-Spin Energy  =      -0.1176450906678114 [Eh]
	 SCS Correlation Energy    =      -0.1276286996757415 [Eh]
	 SCS Total Energy          =     -76.1063984365921726 [Eh]
	-----------------------------------------------------------

  -Total Gradient:
     Atom            X                  Y                   Z
    ------   -----------------  -----------------  -----------------
       1       -0.010287451704     0.096808002901     0.000000000000
       2       -0.022023763430    -0.003684069049     0.000000000000
       3        0.032311215134    -0.093123933853    -0.000000000000

*** Psi4 exiting successfully. Buy a developer a beer!
