                               Psi4 1.3.1 release

  ==> Input File <==

--------------------------------------------------------------------------
# density fitted hartree fock
molecule h2o {
0 1
H 0.0000000000 0.0000000000 1.0833333333
H 0.0000000000 1.0378219717 -0.3107035021
O 0.0000000000 0.0000000000 0.0000000000
}

set basis 6-31g
energy('hf')

--------------------------------------------------------------------------

    Molecular point group: c2v

    Geometry (in Angstrom), charge = 0, multiplicity = 1:

       Center              X                  Y                   Z               Mass
    ------------   -----------------  -----------------  -----------------  -----------------
         H            0.000000000000    -0.868966792144     0.574521635545     1.007825032230
         H           -0.000000000000     0.868966792144     0.574521635545     1.007825032230
         O           -0.000000000000     0.000000000000    -0.072400172134    15.994914619570

  Charge       = 0
  Multiplicity = 1
  Basis Set: 6-31G
    Blend: 6-31G
  Basis Set: (6-31G AUX)
    Blend: CC-PVDZ-JKFIT

    Orbital Energies [Eh]
    ---------------------

    Doubly Occupied:

       1A1   -20.583039     2A1    -1.297349     1B2    -0.648393
       3A1    -0.537830     1B1    -0.495308

  @DF-RHF Final Energy:   -75.95847809474631

   => Energetics <=

    Nuclear Repulsion Energy =              8.1200267826057981
    One-Electron Energy =                -121.0331596602100888
    Two-Electron Energy =                  36.9546547828579577
    Total Energy =                        -75.9584780947463258

  Dipole Moment: [D]
     X:    -0.0000      Y:     0.0000      Z:     2.6183     Total:     2.6183

*** Psi4 exiting successfully. Buy a developer a beer!
