                               Psi4 1.3.2 release

  ==> Input File <==

--------------------------------------------------------------------------
# density fitted hartree fock
molecule h2o {
noreorient
nocom
0 1
H 0.0000000000 0.0000000000 0.9471306471
H 0.0000000000 0.8784447533 -0.3473641816
O 0.0000000000 0.0000000000 0.0000000000
}

set scf_type pk
set basis 6-31g
set e_convergence 10
gradient('hf')

--------------------------------------------------------------------------

    Molecular point group: cs
  Charge       = 0
  Multiplicity = 1
  Basis Set: 6-31G
    Blend: 6-31G

    Orbital Energies [Eh]
    ---------------------

    Doubly Occupied:

       1Ap   -20.552750     2Ap    -1.354518     3Ap    -0.728679
       4Ap    -0.548729     1App   -0.498535

  @RHF Final Energy:   -75.98532634910012

   => Energetics <=

    Nuclear Repulsion Energy =              9.2895477671502054
    One-Electron Energy =                -123.1833272415968850
    Two-Electron Energy =                  37.9084531253465542
    Total Energy =                        -75.9853263491001201

  Dipole Moment: [D]
     X:     0.0000      Y:     2.0651      Z:     1.4062     Total:     2.4984

    Molecular point group: cs

    Geometry (in Angstrom), charge = 0, multiplicity = 1:

       Center              X                  Y                   Z               Mass
    ------------   -----------------  -----------------  -----------------  -----------------
         H            0.000000000000     0.000000000000     0.947130647100     1.007825032230
         H            0.000000000000     0.878444753300    -0.347364181600     1.007825032230
         O            0.000000000000     0.000000000000     0.000000000000    15.994914619570

  Basis Set: 6-31G
    Blend: 6-31G

  -Total Gradient:
     Atom            X                  Y                   Z
    ------   -----------------  -----------------  -----------------
       1        0.000000000000     0.000256425528    -0.002723790245
       2        0.000000000000    -0.005158989103     0.002316499204
       3        0.000000000000     0.004902563575     0.000407291041

*** Psi4 exiting successfully. Buy a developer a beer!
