                               Psi4 1.3.2 release

  ==> Input File <==

--------------------------------------------------------------------------
# density fitted hartree fock
molecule h2o {
0 1
H 0.0000000000 0.0000000000 0.9333333333
H 0.0000000000 0.9243926271 -0.2190850772
O 0.0000000000 0.0000000000 0.0000000000
}

set scf_type pk
set basis 6-31g
gradient('hf')

--------------------------------------------------------------------------

    Molecular point group: cs
  Charge       = 0
  Multiplicity = 1
  Basis Set: 6-31G
    Blend: 6-31G

    Orbital Energies [Eh]
    ---------------------

    Doubly Occupied:

       1Ap   -20.558118     2Ap    -1.366394     3Ap    -0.716900
       4Ap    -0.565217     1App   -0.502844

  @RHF Final Energy:   -75.98298266364506

   => Energetics <=

    Nuclear Repulsion Energy =              9.3502267685713036
    One-Electron Energy =                -123.2474704891475739
    Two-Electron Energy =                  37.9142610569312097
    Total Energy =                        -75.9829826636450605

  Dipole Moment: [D]
     X:    -2.0784      Y:    -1.6341      Z:     0.0000     Total:     2.6439

    Molecular point group: cs

    Geometry (in Angstrom), charge = 0, multiplicity = 1:

       Center              X                  Y                   Z               Mass
    ------------   -----------------  -----------------  -----------------  -----------------
         H            0.051726641865    -0.893365831761     0.000000000000     1.007825032230
         H           -0.872665985235     0.259052578739     0.000000000000     1.007825032230
         O            0.051726641865     0.039967501539     0.000000000000    15.994914619570

  Basis Set: 6-31G
    Blend: 6-31G

  -Total Gradient:
     Atom            X                  Y                   Z
    ------   -----------------  -----------------  -----------------
       1       -0.016197191882     0.025224431384     0.000000000000
       2        0.001525887330    -0.016715492306     0.000000000000
       3        0.014671304552    -0.008508939078     0.000000000000

*** Psi4 exiting successfully. Buy a developer a beer!
