                               Psi4 1.3.2 release

  ==> Input File <==

--------------------------------------------------------------------------
# density fitted hartree fock
molecule h2o {
0 1
H 0.0000000000 0.0000000000 0.9666666667
H 0.0000000000 0.9243926271 -0.2190850772
O 0.0000000000 0.0000000000 0.0000000000
}

set scf_type pk
set basis 6-31g
gradient('hf')

--------------------------------------------------------------------------

    Molecular point group: cs
  Charge       = 0
  Multiplicity = 1
  Basis Set: 6-31G
    Blend: 6-31G

    Orbital Energies [Eh]
    ---------------------

    Doubly Occupied:

       1Ap   -20.561474     2Ap    -1.357217     3Ap    -0.707514
       4Ap    -0.562741     1App   -0.501908

  @RHF Final Energy:   -75.98334921102243

   => Energetics <=

    Nuclear Repulsion Energy =              9.1875905651504954
    One-Electron Energy =                -122.9601713468438646
    Two-Electron Energy =                  37.7892315706709354
    Total Energy =                        -75.9833492110224284

  Dipole Moment: [D]
     X:    -2.0749      Y:    -1.6493      Z:     0.0000     Total:     2.6506

    Molecular point group: cs

    Geometry (in Angstrom), charge = 0, multiplicity = 1:

       Center              X                  Y                   Z               Mass
    ------------   -----------------  -----------------  -----------------  -----------------
         H            0.051726641865    -0.924833917269     0.000000000000     1.007825032230
         H           -0.872665985235     0.260917826631     0.000000000000     1.007825032230
         O            0.051726641865     0.041832749431     0.000000000000    15.994914619570

  Basis Set: 6-31G
    Blend: 6-31G

  -Total Gradient:
     Atom            X                  Y                   Z
    ------   -----------------  -----------------  -----------------
       1       -0.014149464626    -0.012142236363     0.000000000000
       2        0.002103444615    -0.015295069648     0.000000000000
       3        0.012046020010     0.027437306012     0.000000000000

*** Psi4 exiting successfully. Buy a developer a beer!
