                               Psi4 1.3.2 release

  ==> Input File <==

--------------------------------------------------------------------------
# density fitted hartree fock
molecule h2o {
0 1
H 0.0000000000 0.0000000000 0.9000000000
H 0.0000000000 0.7794228634 -0.4500000000
O 0.0000000000 0.0000000000 0.0000000000
}

set scf_type pk
set basis 6-31g
gradient('hf')

--------------------------------------------------------------------------

    Molecular point group: c2v
  Charge       = 0
  Multiplicity = 1
  Basis Set: 6-31G
    Blend: 6-31G

    Orbital Energies [Eh]
    ---------------------

    Doubly Occupied:

       1A1   -20.537809     2A1    -1.370929     1B2    -0.771264
       3A1    -0.539882     1B1    -0.498134

  @RHF Final Energy:   -75.97883398982096

   => Energetics <=

    Nuclear Repulsion Energy =              9.7470621953048298
    One-Electron Energy =                -124.0157560219939654
    Two-Electron Energy =                  38.2898598368681746
    Total Energy =                        -75.9788339898209557

  Dipole Moment: [D]
     X:    -0.0000      Y:     0.0000      Z:     2.3022     Total:     2.3022

    Molecular point group: c2v

    Geometry (in Angstrom), charge = 0, multiplicity = 1:

       Center              X                  Y                   Z               Mass
    ------------   -----------------  -----------------  -----------------  -----------------
         H            0.000000000000    -0.779422863404     0.399638307018     1.007825032230
         H           -0.000000000000     0.779422863404     0.399638307018     1.007825032230
         O           -0.000000000000     0.000000000000    -0.050361692979    15.994914619570

  Basis Set: 6-31G
    Blend: 6-31G

  -Total Gradient:
     Atom            X                  Y                   Z
    ------   -----------------  -----------------  -----------------
       1       -0.000000000000     0.046876923309    -0.038257550333
       2        0.000000000000    -0.046876923309    -0.038257550333
       3        0.000000000000     0.000000000000     0.076515100667

*** Psi4 exiting successfully. Buy a developer a beer!
