                               Psi4 1.3.2 release

  ==> Input File <==

--------------------------------------------------------------------------
# density fitted hartree fock
molecule h2o {
0 1
H 0.0000000000 0.0000000000 0.9666666667
H 0.0000000000 0.9355673654 -0.1649657688
O 0.0000000000 0.0000000000 0.0000000000
}

set scf_type pk
set basis 6-31g
gradient('hf')

--------------------------------------------------------------------------

    Molecular point group: cs
  Charge       = 0
  Multiplicity = 1
  Basis Set: 6-31G
    Blend: 6-31G

    Orbital Energies [Eh]
    ---------------------

    Doubly Occupied:

       1Ap   -20.563866     2Ap    -1.361068     3Ap    -0.701400
       4Ap    -0.569261     1App   -0.503517

  @RHF Final Energy:   -75.98149806733738

   => Energetics <=

    Nuclear Repulsion Energy =              9.1960302608698790
    One-Electron Energy =                -122.9568319197993276
    Two-Electron Energy =                  37.7793035915920683
    Total Energy =                        -75.9814980673373839

  Dipole Moment: [D]
     X:    -2.0690      Y:    -1.7426      Z:     0.0000     Total:     2.7051

    Molecular point group: cs

    Geometry (in Angstrom), charge = 0, multiplicity = 1:

       Center              X                  Y                   Z               Mass
    ------------   -----------------  -----------------  -----------------  -----------------
         H            0.052351951576    -0.921805539498     0.000000000000     1.007825032230
         H           -0.883215413824     0.209826896002     0.000000000000     1.007825032230
         O            0.052351951576     0.044861127202     0.000000000000    15.994914619570

  Basis Set: 6-31G
    Blend: 6-31G

  -Total Gradient:
     Atom            X                  Y                   Z
    ------   -----------------  -----------------  -----------------
       1       -0.020733573226    -0.009554573016     0.000000000000
       2        0.004284713568    -0.022178291356     0.000000000000
       3        0.016448859657     0.031732864372     0.000000000000

*** Psi4 exiting successfully. Buy a developer a beer!
