                               Psi4 1.3.1 release

  ==> Input File <==

--------------------------------------------------------------------------
# density fitted hartree fock
molecule h2o {
0 1
H 0.0000000000 0.0000000000 1.2000000000
H 0.0000000000 1.1676538447 -0.2767390449
O 0.0000000000 0.0000000000 0.0000000000
}

set basis 6-31g
energy('hf')

--------------------------------------------------------------------------

    Molecular point group: c2v

    Geometry (in Angstrom), charge = 0, multiplicity = 1:

       Center              X                  Y                   Z               Mass
    ------------   -----------------  -----------------  -----------------  -----------------
         H            0.000000000000    -0.941298797908     0.660986297824     1.007825032230
         H           -0.000000000000     0.941298797908     0.660986297824     1.007825032230
         O            0.000000000000     0.000000000000    -0.083296291697    15.994914619570

  Charge       = 0
  Multiplicity = 1
  Basis Set: 6-31G
    Blend: 6-31G
  Basis Set: (6-31G AUX)
    Blend: CC-PVDZ-JKFIT

    Orbital Energies [Eh]
    ---------------------

    Doubly Occupied:

       1A1   -20.606880     2A1    -1.264160     1B2    -0.595645
       3A1    -0.526069     1B1    -0.496403

  @DF-RHF Final Energy:   -75.91076858757252

   => Energetics <=

    Nuclear Repulsion Energy =              7.3367850015171054
    One-Electron Energy =                -119.5167933055440983
    Two-Electron Energy =                  36.2692397164544786
    Total Energy =                        -75.9107685875725196

  Dipole Moment: [D]
     X:     0.0000      Y:     0.0000      Z:     2.6535     Total:     2.6535

*** Psi4 exiting successfully. Buy a developer a beer!
