                               Psi4 1.3.2 release

  ==> Input File <==

--------------------------------------------------------------------------
# Problem case from CDS

memory 1024 mb

molecule mol {
0 1
H  0.0  -0.92   -1.8
H  0.0   0.92   -1.8
C  0.0   0.00   -1.3
C  0.0   0.00    0.0
C  0.0   0.00    1.3
H  0.92  0.00    1.8
H -0.92  0.00    1.8
}

set scf_type df
set basis 6-31+G(d)
set reference rhf
mol.update_geometry()
mol.symmetrize(1e-3)
set intcos_generate_exit True

e, wfn = optimize('scf', return_wfn=True)

#oeprop(wfn, "MULLIKEN_CHARGES")
#mol.print_out()
#print_variables()
--------------------------------------------------------------------------

    Molecular point group: c2v
  Charge       = 0
  Multiplicity = 1
  Basis Set: 6-31+G(D)
    Blend: 6-31+G(D)
  Basis Set: (6-31+G(D) AUX)
    Blend: HEAVY-AUG-CC-PVDZ-JKFIT

    Orbital Energies [Eh]
    ---------------------

    Doubly Occupied:

       1A1   -11.265427     2A1   -11.232162     3A1   -11.232071
       4A1    -1.083268     5A1    -0.970032     6A1    -0.717974
       1B2    -0.629608     1B1    -0.629608     7A1    -0.626303
       2B1    -0.379010     2B2    -0.379010

  @DF-RHF Final Energy:  -115.86265432475523

   => Energetics <=

    Nuclear Repulsion Energy =             60.1027695763501413
    One-Electron Energy =                -273.6419004495240301
    Two-Electron Energy =                  97.6764765484186626
    Total Energy =                       -115.8626543247552263

  Dipole Moment: [D]
     X:     0.0000      Y:     0.0000      Z:    -0.0000     Total:     0.0000

    Molecular point group: c2v
  Basis Set: 6-31+G(D)
    Blend: 6-31+G(D)
  Basis Set: (6-31+G(D) AUX)
    Blend: HEAVY-AUG-CC-PVDZ-JKFIT

  -Total Gradient:
     Atom            X                  Y                   Z
    ------   -----------------  -----------------  -----------------
       1       -0.000000000000     0.016605662551     0.017533906377
       2        0.000000000000    -0.016605662551     0.017533906377
       3       -0.000000000000    -0.000000000000    -0.032654154434
       4        0.000000000000     0.000000000000     0.000002012076
       5        0.000000000000    -0.000000000000     0.032652255233
       6       -0.016605788994    -0.000000000000    -0.017533962815
       7        0.016605788994     0.000000000000    -0.017533962815

    Final optimized geometry and variables:
    Molecular point group: c2v

    Geometry (in Angstrom), charge = 0, multiplicity = 1:

    H            0.000000000000    -0.920000000000    -1.800000000000
    H           -0.000000000000     0.920000000000    -1.800000000000
    C           -0.000000000000    -0.000000000000    -1.300000000000
    C           -0.000000000000    -0.000000000000     0.000000000000
    C           -0.000000000000    -0.000000000000     1.300000000000
    H            0.920000000000     0.000000000000     1.800000000000
    H           -0.920000000000    -0.000000000000     1.800000000000

*** Psi4 exiting successfully. Buy a developer a beer!
