                               Psi4 1.3.2 release

  ==> Input File <==

--------------------------------------------------------------------------
# density fitted hartree fock
molecule h2o {
noreorient
nocom
0 1
H 0.0000000000 0.0000000000 0.9166666667
H 0.0000000000 0.9027404403 -0.1591774962
O 0.0000000000 0.0000000000 0.0000000000
}

set scf_type pk
set basis 6-31g
gradient('hf')

--------------------------------------------------------------------------

    Molecular point group: cs
  Charge       = 0
  Multiplicity = 1
  Basis Set: 6-31G
    Blend: 6-31G

    Orbital Energies [Eh]
    ---------------------

    Doubly Occupied:

       1Ap   -20.555297     2Ap    -1.385035     3Ap    -0.724632
       4Ap    -0.575505     1App   -0.505855

  @RHF Final Energy:   -75.97798455993500

   => Energetics <=

    Nuclear Repulsion Energy =              9.6133431975822994
    One-Electron Energy =                -123.6900074466739596
    Two-Electron Energy =                  38.0986796891566684
    Total Energy =                        -75.9779845599349954

  Dipole Moment: [D]
     X:     0.0000      Y:     2.0585      Z:     1.7272     Total:     2.6871

    Molecular point group: cs

    Geometry (in Angstrom), charge = 0, multiplicity = 1:

       Center              X                  Y                   Z               Mass
    ------------   -----------------  -----------------  -----------------  -----------------
         H            0.000000000000     0.000000000000     0.916666666700     1.007825032230
         H            0.000000000000     0.902740440300    -0.159177496200     1.007825032230
         O            0.000000000000     0.000000000000     0.000000000000    15.994914619570

  Basis Set: 6-31G
    Blend: 6-31G

  -Total Gradient:
     Atom            X                  Y                   Z
    ------   -----------------  -----------------  -----------------
       1        0.000000000000     0.026033920675    -0.049813045933
       2        0.000000000000    -0.044535530945     0.034288351571
       3        0.000000000000     0.018501610270     0.015524694362

*** Psi4 exiting successfully. Buy a developer a beer!
