                               Psi4 1.3.2 release

  ==> Input File <==

--------------------------------------------------------------------------
# density fitted hartree fock
molecule h2o {
0 1
H 0.0000000000 0.0000000000 0.9166666667
H 0.0000000000 0.8416980980 -0.3630731189
O 0.0000000000 0.0000000000 0.0000000000
}

set scf_type pk
set basis 6-31g
gradient('hf')

--------------------------------------------------------------------------

    Molecular point group: c2v
  Charge       = 0
  Multiplicity = 1
  Basis Set: 6-31G
    Blend: 6-31G

    Orbital Energies [Eh]
    ---------------------

    Doubly Occupied:

       1A1   -20.545894     2A1    -1.368878     1B2    -0.749642
       3A1    -0.549706     1B1    -0.499816

  @RHF Final Energy:   -75.98297168865085

   => Energetics <=

    Nuclear Repulsion Energy =              9.5820250266226079
    One-Electron Energy =                -123.7021229309318784
    Two-Electron Energy =                  38.1371262156584265
    Total Energy =                        -75.9829716886508493

  Dipole Moment: [D]
     X:    -0.0000      Y:     0.0000      Z:     2.4504     Total:     2.4504

    Molecular point group: c2v

    Geometry (in Angstrom), charge = 0, multiplicity = 1:

       Center              X                  Y                   Z               Mass
    ------------   -----------------  -----------------  -----------------  -----------------
         H            0.000000000000    -0.765863827163     0.447343187895     1.007825032230
         H           -0.000000000000     0.765863827163     0.447343187895     1.007825032230
         O           -0.000000000000     0.000000000000    -0.056373375348    15.994914619570

  Basis Set: 6-31G
    Blend: 6-31G

  -Total Gradient:
     Atom            X                  Y                   Z
    ------   -----------------  -----------------  -----------------
       1       -0.000000000000     0.033043114279    -0.022092004890
       2        0.000000000000    -0.033043114279    -0.022092004890
       3        0.000000000000     0.000000000000     0.044184009780

*** Psi4 exiting successfully. Buy a developer a beer!
