                               Psi4 1.2.1 release

  ==> Input File <==

--------------------------------------------------------------------------
# density-fitted hartree fock energies and gradients with 6-31g
molecule h2o {
0 1
H 0.0000000000 0.0000000000 1.0000000000
H 0.0000000000 0.9866772518 -0.3591211505
O 0.0000000000 0.0000000000 0.0000000000
}

set basis 6-31g

gradient('mp2')
--------------------------------------------------------------------------

    Molecular point group: cs
  Charge       = 0
  Multiplicity = 1
  Basis Set: 6-31G
    Blend: 6-31G
  Basis Set: (6-31G AUX)
    Blend: CC-PVDZ-JKFIT

    Orbital Energies [Eh]
    ---------------------

    Doubly Occupied:

       1Ap   -20.569004     2Ap    -1.318137     3Ap    -0.681883
       4Ap    -0.539995     1App   -0.495156

  @DF-RHF Final Energy:   -75.97477745437024

   => Energetics <=

    Nuclear Repulsion Energy =              8.5803229959569247
    One-Electron Energy =                -121.9018514513739575
    Two-Electron Energy =                  37.3467510010467976
    Total Energy =                        -75.9747774543702405

  Dipole Moment: [D]
     X:    -2.1053      Y:    -1.4442      Z:     0.0000     Total:     2.5531

  Basis Set: (6-31G AUX)
    Blend: CC-PVDZ-RI
    Molecular point group: cs

    Geometry (in Angstrom), charge = 0, multiplicity = 1:

       Center              X                  Y                   Z               Mass
    ------------   -----------------  -----------------  -----------------  -----------------
         H            0.055211929798    -0.964138062388     0.000000000000     1.007825032070
         H           -0.931465322002     0.394983088112     0.000000000000     1.007825032070
         O            0.055211929798     0.035861937612     0.000000000000    15.994914619560

  Basis Set: 6-31G
    Blend: 6-31G
  Basis Set: (6-31G AUX)
    Blend: CC-PVDZ-JKFIT
  Basis Set: (6-31G AUX)
    Blend: CC-PVDZ-JKFIT
	 Reference Energy          =     -75.9747774543702405 [Eh]
	 Singles Energy            =      -0.0000000000000000 [Eh]
	 Same-Spin Energy          =      -0.0315104566188194 [Eh]
	 Opposite-Spin Energy      =      -0.1030178773390846 [Eh]
	 Correlation Energy        =      -0.1345283339579040 [Eh]
	 Total Energy              =     -76.1093057883281432 [Eh]

	 ================> DF-SCS-MP2 Energies <==================
	-----------------------------------------------------------
	 SCS Same-Spin Scale       =       0.3333333333333333 [-]
	 SCS Opposite-Spin Scale   =       1.2000000000000000 [-]
	 SCS Same-Spin Energy      =      -0.0105034855396065 [Eh]
	 SCS Opposite-Spin Energy  =      -0.1236214528069016 [Eh]
	 SCS Correlation Energy    =      -0.1341249383465080 [Eh]
	 SCS Total Energy          =     -76.1089023927167432 [Eh]
	-----------------------------------------------------------

  -Total Gradient:
     Atom            X                  Y                   Z
    ------   -----------------  -----------------  -----------------
       1        0.005396090269    -0.020643949733    -0.000000000000
       2       -0.050155745979     0.023724149681    -0.000000000000
       3        0.044759655710    -0.003080199948     0.000000000000

*** Psi4 exiting successfully. Buy a developer a beer!
