                               Psi4 1.3.2 release

  ==> Input File <==

--------------------------------------------------------------------------
import psi4
import numpy as np

basis {
assign s_orb
[ s_orb ]
cartesian
****
H     0
S   1   1.00
      0.50000000000      1.0000000000
S   1   1.00
      0.40000000000      1.0000000000
****
}

molecule h2o {
symmetry c1
units bohr
0 1
H 0.000000000000 0.000000000000 -0.849220457955
H 0.000000000000 0.000000000000  0.849220457955
}

set scf_type pk
set puream false
set e_convergence 10
set d_convergence 10
set RMS_DISP_G_CONVERGENCE 1e-9
optimize('hf')
--------------------------------------------------------------------------

    Molecular point group: c1
  Charge       = 0
  Multiplicity = 1
  Basis Set: ANONYMOUSE790AE07
    Blend: S_ORB
  @RHF Final Energy:    -0.97168559140495
    Total Energy =                         -0.9716855914049460
    Molecular point group: c1
  Basis Set: ANONYMOUSE790AE07
    Blend: S_ORB
  Basis Set: ANONYMOUSE790AE07
    Blend: S_ORB
  @RHF Final Energy:    -0.97890626053538
    Total Energy =                         -0.9789062605353839
  Basis Set: ANONYMOUSE790AE07
    Blend: S_ORB
  Basis Set: ANONYMOUSE790AE07
    Blend: S_ORB
  @RHF Final Energy:    -0.97967673670880
    Total Energy =                         -0.9796767367087993
  Basis Set: ANONYMOUSE790AE07
    Blend: S_ORB
  Basis Set: ANONYMOUSE790AE07
    Blend: S_ORB
  @RHF Final Energy:    -0.97974835660056
    Total Energy =                         -0.9797483566005636
  Basis Set: ANONYMOUSE790AE07
    Blend: S_ORB
  @RHF Final Energy:    -0.97975824734505
    Total Energy =                         -0.9797582473450519
  Basis Set: ANONYMOUSE790AE07
    Blend: S_ORB
  @RHF Final Energy:    -0.97975832094544
    Total Energy =                         -0.9797583209454371
  Basis Set: ANONYMOUSE790AE07
    Blend: S_ORB
  Basis Set: ANONYMOUSE790AE07
    Blend: S_ORB
  @RHF Final Energy:    -0.97975832100674
    Total Energy =                         -0.9797583210067415
  Basis Set: ANONYMOUSE790AE07
    Blend: S_ORB
  Basis Set: ANONYMOUSE790AE07
    Blend: S_ORB
  @RHF Final Energy:    -0.97975832100675
    Total Energy =                         -0.9797583210067522
  Basis Set: ANONYMOUSE790AE07
    Blend: S_ORB
  Charge       = 0
  Multiplicity = 1
  Basis Set: ANONYMOUSE790AE07
    Blend: S_ORB

    Orbital Energies [Eh]
    ---------------------

    Doubly Occupied:

       1A     -0.492341

  @RHF Final Energy:    -0.97975832100675

   => Energetics <=

    Nuclear Repulsion Energy =              0.6723599070687915
    One-Electron Energy =                  -2.3195534845886532
    Two-Electron Energy =                   0.6674352565131102
    Total Energy =                         -0.9797583210067516

  Dipole Moment: [D]
     X:     0.0000      Y:     0.0000      Z:     0.0000     Total:     0.0000

    Molecular point group: c1
  Basis Set: ANONYMOUSE790AE07
    Blend: S_ORB

  -Total Gradient:
     Atom            X                  Y                   Z
    ------   -----------------  -----------------  -----------------
       1        0.000000000000     0.000000000000    -0.000000000007
       2        0.000000000000     0.000000000000     0.000000000007

  **** Optimization is complete! (in 9 steps) ****
    Final optimized geometry and variables:
    Molecular point group: c1

    Geometry (in Bohr), charge = 0, multiplicity = 1:

    H            0.000000000000     0.000000000000    -0.743649338313
    H            0.000000000000     0.000000000000     0.743649338313

*** Psi4 exiting successfully. Buy a developer a beer!
