                               Psi4 1.2.1 release

  ==> Input File <==

--------------------------------------------------------------------------
# density-fitted hartree fock energies and gradients with 6-31g
molecule h2o {
0 1
H 0.0000000000 0.0000000000 1.0000000000
H 0.0000000000 0.9659258263 -0.2588190451
O 0.0000000000 0.0000000000 0.0000000000
}

set basis 6-31g

gradient('mp2')
--------------------------------------------------------------------------

    Molecular point group: c2v
  Charge       = 0
  Multiplicity = 1
  Basis Set: 6-31G
    Blend: 6-31G
  Basis Set: (6-31G AUX)
    Blend: CC-PVDZ-JKFIT

    Orbital Energies [Eh]
    ---------------------

    Doubly Occupied:

       1A1   -20.568489     2A1    -1.334180     1B2    -0.687661
       3A1    -0.553339     1B1    -0.499014

  @DF-RHF Final Energy:   -75.98026875204096

   => Energetics <=

    Nuclear Repulsion Energy =              8.8003419741724045
    One-Electron Energy =                -122.2758572665459553
    Two-Electron Energy =                  37.4952465403326016
    Total Energy =                        -75.9802687520409563

  Dipole Moment: [D]
     X:    -0.0000      Y:     0.0000      Z:     2.6359     Total:     2.6359

  Basis Set: (6-31G AUX)
    Blend: CC-PVDZ-RI
    Molecular point group: c2v

    Geometry (in Angstrom), charge = 0, multiplicity = 1:

       Center              X                  Y                   Z               Mass
    ------------   -----------------  -----------------  -----------------  -----------------
         H            0.000000000000    -0.793353340294     0.540631970833     1.007825032070
         H           -0.000000000000     0.793353340294     0.540631970833     1.007825032070
         O           -0.000000000000     0.000000000000    -0.068129458181    15.994914619560

  Basis Set: 6-31G
    Blend: 6-31G
  Basis Set: (6-31G AUX)
    Blend: CC-PVDZ-JKFIT
  Basis Set: (6-31G AUX)
    Blend: CC-PVDZ-JKFIT
	 Reference Energy          =     -75.9802687520409563 [Eh]
	 Singles Energy            =      -0.0000000000000000 [Eh]
	 Same-Spin Energy          =      -0.0310295008747307 [Eh]
	 Opposite-Spin Energy      =      -0.1016426616619560 [Eh]
	 Correlation Energy        =      -0.1326721625366867 [Eh]
	 Total Energy              =     -76.1129409145776492 [Eh]

	 ================> DF-SCS-MP2 Energies <==================
	-----------------------------------------------------------
	 SCS Same-Spin Scale       =       0.3333333333333333 [-]
	 SCS Opposite-Spin Scale   =       1.2000000000000000 [-]
	 SCS Same-Spin Energy      =      -0.0103431669582436 [Eh]
	 SCS Opposite-Spin Energy  =      -0.1219711939943472 [Eh]
	 SCS Correlation Energy    =      -0.1323143609525907 [Eh]
	 SCS Total Energy          =     -76.1125831129935477 [Eh]
	-----------------------------------------------------------

  -Total Gradient:
     Atom            X                  Y                   Z
    ------   -----------------  -----------------  -----------------
       1        0.000000000000    -0.011539280227     0.014861761322
       2        0.000000000000     0.011539280220     0.014861761317
       3       -0.000000000000     0.000000000007    -0.029723522639

*** Psi4 exiting successfully. Buy a developer a beer!
