                               Psi4 1.3.2 release

  ==> Input File <==

--------------------------------------------------------------------------
# density fitted hartree fock
molecule h2o {
0 1
H 0.0000000000 0.0000000000 0.9833333333
H 0.0000000000 0.9420230204 -0.2820231788
O 0.0000000000 0.0000000000 0.0000000000
}

set scf_type pk
set basis 6-31g
gradient('hf')

--------------------------------------------------------------------------

    Molecular point group: c2v
  Charge       = 0
  Multiplicity = 1
  Basis Set: 6-31G
    Blend: 6-31G

    Orbital Energies [Eh]
    ---------------------

    Doubly Occupied:

       1A1   -20.563887     2A1    -1.340503     1B2    -0.699285
       3A1    -0.552611     1B1    -0.498903

  @RHF Final Energy:   -75.98292785869420

   => Energetics <=

    Nuclear Repulsion Energy =              8.9457922184665826
    One-Electron Energy =                -122.5470612651020446
    Two-Electron Energy =                  37.6183411879412617
    Total Energy =                        -75.9829278586942110

  Dipole Moment: [D]
     X:     0.0000      Y:     0.0000      Z:     2.6022     Total:     2.6022

    Molecular point group: c2v

    Geometry (in Angstrom), charge = 0, multiplicity = 1:

       Center              X                  Y                   Z               Mass
    ------------   -----------------  -----------------  -----------------  -----------------
         H            0.000000000000    -0.788754472836     0.521488869171     1.007825032230
         H           -0.000000000000     0.788754472836     0.521488869171     1.007825032230
         O            0.000000000000     0.000000000000    -0.065717079319    15.994914619570

  Basis Set: 6-31G
    Blend: 6-31G

  -Total Gradient:
     Atom            X                  Y                   Z
    ------   -----------------  -----------------  -----------------
       1        0.000000000000    -0.020580759345     0.022437838825
       2       -0.000000000000     0.020580759345     0.022437838825
       3        0.000000000000     0.000000000000    -0.044875677650

*** Psi4 exiting successfully. Buy a developer a beer!
