                               Psi4 1.3.2 release

  ==> Input File <==

--------------------------------------------------------------------------
# density fitted hartree fock
molecule h2o {
0 1
H 0.0000000000 0.0000000000 1.0000000000
H 0.0000000000 0.9182161069 -0.3960797660
O 0.0000000000 0.0000000000 0.0000000000
}

set scf_type pk
set basis 6-31g
gradient('hf')

--------------------------------------------------------------------------

    Molecular point group: c2v
  Charge       = 0
  Multiplicity = 1
  Basis Set: 6-31G
    Blend: 6-31G

    Orbital Energies [Eh]
    ---------------------

    Doubly Occupied:

       1A1   -20.561434     2A1    -1.325401     1B2    -0.699761
       3A1    -0.537522     1B1    -0.494317

  @RHF Final Energy:   -75.98034118586662

   => Energetics <=

    Nuclear Repulsion Energy =              8.7835229414001716
    One-Electron Energy =                -122.2908562940544499
    Two-Electron Energy =                  37.5269921667876645
    Total Energy =                        -75.9803411858666209

  Dipole Moment: [D]
     X:    -0.0000      Y:     0.0000      Z:     2.4845     Total:     2.4845

    Molecular point group: c2v

    Geometry (in Angstrom), charge = 0, multiplicity = 1:

       Center              X                  Y                   Z               Mass
    ------------   -----------------  -----------------  -----------------  -----------------
         H            0.000000000000    -0.835487811402     0.488010750436     1.007825032230
         H           -0.000000000000     0.835487811402     0.488010750436     1.007825032230
         O           -0.000000000000     0.000000000000    -0.061498227654    15.994914619570

  Basis Set: 6-31G
    Blend: 6-31G

  -Total Gradient:
     Atom            X                  Y                   Z
    ------   -----------------  -----------------  -----------------
       1        0.000000000000    -0.043496711343     0.020863544639
       2       -0.000000000000     0.043496711343     0.020863544639
       3        0.000000000000     0.000000000000    -0.041727089277

*** Psi4 exiting successfully. Buy a developer a beer!
