                               Psi4 1.3.2 release

  ==> Input File <==

--------------------------------------------------------------------------
# density fitted hartree fock
molecule h2o {
noreorient
nocom
0 1
H 0.0000000000 0.0000000000 0.9333333333
H 0.0000000000 0.8770464461 -0.3192188004
O 0.0000000000 0.0000000000 0.0000000000
}

set scf_type pk
set basis 6-31g
gradient('hf')

--------------------------------------------------------------------------

    Molecular point group: cs
  Charge       = 0
  Multiplicity = 1
  Basis Set: 6-31G
    Blend: 6-31G

    Orbital Energies [Eh]
    ---------------------

    Doubly Occupied:

       1Ap   -20.551575     2Ap    -1.363227     3Ap    -0.733670
       4Ap    -0.553574     1App   -0.500177

  @RHF Final Energy:   -75.98465181009037

   => Energetics <=

    Nuclear Repulsion Energy =              9.4176840178550840
    One-Electron Energy =                -123.4002252273180034
    Two-Electron Energy =                  37.9978893993725464
    Total Energy =                        -75.9846518100903836

  Dipole Moment: [D]
     X:     0.0000      Y:     2.0662      Z:     1.4468     Total:     2.5223

    Molecular point group: cs

    Geometry (in Angstrom), charge = 0, multiplicity = 1:

       Center              X                  Y                   Z               Mass
    ------------   -----------------  -----------------  -----------------  -----------------
         H            0.000000000000     0.000000000000     0.933333333300     1.007825032230
         H            0.000000000000     0.877046446100    -0.319218800400     1.007825032230
         O            0.000000000000     0.000000000000     0.000000000000    15.994914619570

  Basis Set: 6-31G
    Blend: 6-31G

  -Total Gradient:
     Atom            X                  Y                   Z
    ------   -----------------  -----------------  -----------------
       1        0.000000000000     0.004133755335    -0.020176970299
       2        0.000000000000    -0.017546322446     0.010785389634
       3        0.000000000000     0.013412567112     0.009391580665

*** Psi4 exiting successfully. Buy a developer a beer!
