                               Psi4 1.2.1 release

  ==> Input File <==

--------------------------------------------------------------------------
# density-fitted hartree fock energies and gradients with 6-31g
molecule h2o {
0 1
H 0.0000000000 0.0000000000 1.2000000000
H 0.0000000000 1.1817693036 -0.2083778132
O 0.0000000000 0.0000000000 0.0000000000
}

set basis 6-31g

gradient('mp2')
--------------------------------------------------------------------------

    Molecular point group: c2v
  Charge       = 0
  Multiplicity = 1
  Basis Set: 6-31G
    Blend: 6-31G
  Basis Set: (6-31G AUX)
    Blend: CC-PVDZ-JKFIT

    Orbital Energies [Eh]
    ---------------------

    Doubly Occupied:

       1A1   -20.609816     2A1    -1.266909     1B2    -0.592395
       3A1    -0.531654     1B1    -0.498506

  @DF-RHF Final Energy:   -75.91073542751671

   => Energetics <=

    Nuclear Repulsion Energy =              7.3435260251782113
    One-Electron Energy =                -119.5099627113344241
    Two-Electron Energy =                  36.2557012586395118
    Total Energy =                        -75.9107354275166983

  Dipole Moment: [D]
     X:     0.0000      Y:     0.0000      Z:     2.7079     Total:     2.7079

  Basis Set: (6-31G AUX)
    Blend: CC-PVDZ-RI
    Molecular point group: c2v

    Geometry (in Angstrom), charge = 0, multiplicity = 1:

       Center              X                  Y                   Z               Mass
    ------------   -----------------  -----------------  -----------------  -----------------
         H            0.000000000000    -0.919253331738     0.685020138964     1.007825032070
         H           -0.000000000000     0.919253331738     0.685020138964     1.007825032070
         O            0.000000000000     0.000000000000    -0.086324992654    15.994914619560

  Basis Set: 6-31G
    Blend: 6-31G
  Basis Set: (6-31G AUX)
    Blend: CC-PVDZ-JKFIT
  Basis Set: (6-31G AUX)
    Blend: CC-PVDZ-JKFIT
	 Reference Energy          =     -75.9107354275167125 [Eh]
	 Singles Energy            =      -0.0000000000000000 [Eh]
	 Same-Spin Energy          =      -0.0350395927150073 [Eh]
	 Opposite-Spin Energy      =      -0.1174970630560350 [Eh]
	 Correlation Energy        =      -0.1525366557710423 [Eh]
	 Total Energy              =     -76.0632720832877567 [Eh]

	 ================> DF-SCS-MP2 Energies <==================
	-----------------------------------------------------------
	 SCS Same-Spin Scale       =       0.3333333333333333 [-]
	 SCS Opposite-Spin Scale   =       1.2000000000000000 [-]
	 SCS Same-Spin Energy      =      -0.0116798642383358 [Eh]
	 SCS Opposite-Spin Energy  =      -0.1409964756672420 [Eh]
	 SCS Correlation Energy    =      -0.1526763399055777 [Eh]
	 SCS Total Energy          =     -76.0634117674222949 [Eh]
	-----------------------------------------------------------

  -Total Gradient:
     Atom            X                  Y                   Z
    ------   -----------------  -----------------  -----------------
       1        0.000000000000    -0.072124625303     0.057791537609
       2        0.000000000000     0.072124625303     0.057791537609
       3       -0.000000000000     0.000000000000    -0.115583075218

*** Psi4 exiting successfully. Buy a developer a beer!
