                               Psi4 1.3.2 release

  ==> Input File <==

--------------------------------------------------------------------------
# density fitted hartree fock
molecule h2o {
0 1
H 0.0000000000 0.0000000000 0.9833333333
H 0.0000000000 0.8457233587 -0.3078181290
O 0.0000000000 0.0000000000 0.0000000000
}

set scf_type pk
set basis 6-31g
gradient('hf')

--------------------------------------------------------------------------

    Molecular point group: cs
  Charge       = 0
  Multiplicity = 1
  Basis Set: 6-31G
    Blend: 6-31G

    Orbital Energies [Eh]
    ---------------------

    Doubly Occupied:

       1Ap   -20.553033     2Ap    -1.360561     3Ap    -0.728828
       4Ap    -0.552016     1App   -0.499755

  @RHF Final Energy:   -75.98115628955422

   => Energetics <=

    Nuclear Repulsion Energy =              9.3518155256741515
    One-Electron Energy =                -123.2775575708994040
    Two-Electron Energy =                  37.9445857556710209
    Total Energy =                        -75.9811562895542352

  Dipole Moment: [D]
     X:    -2.0372      Y:    -1.4940      Z:     0.0000     Total:     2.5263

    Molecular point group: cs

    Geometry (in Angstrom), charge = 0, multiplicity = 1:

       Center              X                  Y                   Z               Mass
    ------------   -----------------  -----------------  -----------------  -----------------
         H            0.047324511263    -0.945533234053     0.000000000000     1.007825032230
         H           -0.798398847437     0.345618228247     0.000000000000     1.007825032230
         O            0.047324511263     0.037800099247     0.000000000000    15.994914619570

  Basis Set: 6-31G
    Blend: 6-31G

  -Total Gradient:
     Atom            X                  Y                   Z
    ------   -----------------  -----------------  -----------------
       1       -0.003102155527    -0.033412453359     0.000000000000
       2        0.062851014836    -0.026482815943     0.000000000000
       3       -0.059748859310     0.059895269302     0.000000000000

*** Psi4 exiting successfully. Buy a developer a beer!
