                               Psi4 1.3.2 release

  ==> Input File <==

--------------------------------------------------------------------------
# density fitted hartree fock
molecule h2o {
noreorient
nocom
0 1
H 0.0000000000 0.0000000000 0.9521306472
H 0.0000000000 0.8855108947 -0.3498903040
O 0.0000000000 0.0000000000 0.0000000000
}

set scf_type pk
set basis 6-31g
set e_convergence 10
gradient('hf')

--------------------------------------------------------------------------

    Molecular point group: cs
  Charge       = 0
  Multiplicity = 1
  Basis Set: 6-31G
    Blend: 6-31G

    Orbital Energies [Eh]
    ---------------------

    Doubly Occupied:

       1Ap   -20.553947     2Ap    -1.351179     3Ap    -0.724907
       4Ap    -0.547841     1App   -0.498127

  @RHF Final Energy:   -75.98534609580567

   => Energetics <=

    Nuclear Repulsion Energy =              9.2285836005248694
    One-Electron Energy =                -123.0758589335743380
    Two-Electron Energy =                  37.8619292372438068
    Total Energy =                        -75.9853460958056530

  Dipole Moment: [D]
     X:     0.0000      Y:     2.0683      Z:     1.4067     Total:     2.5013

    Molecular point group: cs

    Geometry (in Angstrom), charge = 0, multiplicity = 1:

       Center              X                  Y                   Z               Mass
    ------------   -----------------  -----------------  -----------------  -----------------
         H            0.000000000000     0.000000000000     0.952130647200     1.007825032230
         H            0.000000000000     0.885510894700    -0.349890304000     1.007825032230
         O            0.000000000000     0.000000000000     0.000000000000    15.994914619570

  Basis Set: 6-31G
    Blend: 6-31G

  -Total Gradient:
     Atom            X                  Y                   Z
    ------   -----------------  -----------------  -----------------
       1        0.000000000000    -0.000228725687     0.002749250714
       2        0.000000000000     0.002472835669    -0.001223020481
       3        0.000000000000    -0.002244109982    -0.001526230233

*** Psi4 exiting successfully. Buy a developer a beer!
