                               Psi4 1.3.2 release

  ==> Input File <==

--------------------------------------------------------------------------
# density fitted hartree fock
molecule h2o {
noreorient
nocom
0 1
H 0.0000000000 0.0000000000 0.9666666667
H 0.0000000000 0.9182161069 -0.3960797660
O 0.0000000000 0.0000000000 0.0000000000
}

set scf_type pk
set basis 6-31g
gradient('hf')

--------------------------------------------------------------------------

    Molecular point group: cs
  Charge       = 0
  Multiplicity = 1
  Basis Set: 6-31G
    Blend: 6-31G

    Orbital Energies [Eh]
    ---------------------

    Doubly Occupied:

       1Ap   -20.558304     2Ap    -1.333625     3Ap    -0.709286
       4Ap    -0.539881     1App   -0.495260

  @RHF Final Energy:   -75.98245854517222

   => Energetics <=

    Nuclear Repulsion Energy =              8.9348504383850464
    One-Electron Energy =                -122.5619042456212497
    Two-Electron Energy =                  37.6445952620639730
    Total Energy =                        -75.9824585451722356

  Dipole Moment: [D]
     X:     0.0000      Y:     2.0841      Z:     1.3430     Total:     2.4793

    Molecular point group: cs

    Geometry (in Angstrom), charge = 0, multiplicity = 1:

       Center              X                  Y                   Z               Mass
    ------------   -----------------  -----------------  -----------------  -----------------
         H            0.000000000000     0.000000000000     0.966666666700     1.007825032230
         H            0.000000000000     0.918216106900    -0.396079766000     1.007825032230
         O            0.000000000000     0.000000000000     0.000000000000    15.994914619570

  Basis Set: 6-31G
    Blend: 6-31G

  -Total Gradient:
     Atom            X                  Y                   Z
    ------   -----------------  -----------------  -----------------
       1        0.000000000000    -0.005516094449     0.018247967878
       2        0.000000000000     0.042372520540    -0.024084879206
       3        0.000000000000    -0.036856426091     0.005836911328

*** Psi4 exiting successfully. Buy a developer a beer!
