                               Psi4 1.3.2 release

  ==> Input File <==

--------------------------------------------------------------------------
import psi4
import numpy as np
np.set_printoptions(linewidth=599)

basis {
assign s_orb
[ s_orb ]
cartesian
****
H     0
S   1   1.00
      0.50000000000      1.0000000000
****
Li     0
D   1   1.00
      0.50000000000      1.0000000000
****
}

molecule h2o {
symmetry c1
units bohr
0 1
H 0.000000000000 0.000000000000 -0.849220457955
#H 0.000000000000 0.000000000000  0.849220457955
Li 0.000000000000 0.000000000000  0.849220457955
}

set scf_type pk
set mp2_type conv
set puream false
#set puream true
set e_convergence 10
set d_convergence 10
e, wfn = energy('hf', return_wfn=True)

mol = wfn.molecule()
bs = wfn.basisset()
basis = psi4.core.BasisSet.build(mol)
mints = psi4.core.MintsHelper(basis)

basis.print_detail_out()
print(basis.shell(0).coef(0))

S = mints.ao_overlap()
V = mints.ao_potential()
S.print_out()
V.print_out()

print(np.asarray(S))
print(np.asarray(V))

--------------------------------------------------------------------------

    Molecular point group: c1

    Geometry (in Bohr), charge = 0, multiplicity = 1:

       Center              X                  Y                   Z               Mass
    ------------   -----------------  -----------------  -----------------  -----------------
         H            0.000000000000     0.000000000000    -1.485109925913     1.007825032230
         LI           0.000000000000     0.000000000000     0.213330989997     7.016003436600

  Charge       = 0
  Multiplicity = 1
  Basis Set: ANONYMOUS26A79020
    Blend: S_ORB

    Orbital Energies [Eh]
    ---------------------

    Doubly Occupied:

       1A     -0.681548     2A      0.032563

  @RHF Final Energy:    -2.33624520743157

   => Energetics <=

    Nuclear Repulsion Energy =              1.7663257943786896
    One-Electron Energy =                  -6.9071718301630156
    Two-Electron Energy =                   2.8046008283527568
    Total Energy =                         -2.3362452074315696

  Dipole Moment: [D]
     X:     0.0000      Y:     0.0000      Z:     1.8572     Total:     1.8572

*** Psi4 exiting successfully. Buy a developer a beer!
