                               Psi4 1.3.2 release

  ==> Input File <==

--------------------------------------------------------------------------
# density fitted hartree fock
molecule h2o {
noreorient
nocom
0 1
H 0.0000000000 0.0000000000 0.9500000000
H 0.0000000000 0.9081752125 -0.2152414794
O 0.0000000000 0.0000000000 0.0000000000
}

set scf_type pk
set basis 6-31g
gradient('hf')

--------------------------------------------------------------------------

    Molecular point group: cs
  Charge       = 0
  Multiplicity = 1
  Basis Set: 6-31G
    Blend: 6-31G

    Orbital Energies [Eh]
    ---------------------

    Doubly Occupied:

       1Ap   -20.558118     2Ap    -1.366394     3Ap    -0.716900
       4Ap    -0.565217     1App   -0.502844

  @RHF Final Energy:   -75.98298266364677

   => Energetics <=

    Nuclear Repulsion Energy =              9.3502267687759488
    One-Electron Energy =                -123.2474704895306559
    Two-Electron Energy =                  37.9142610571079430
    Total Energy =                        -75.9829826636467658

  Dipole Moment: [D]
     X:     0.0000      Y:     2.0693      Z:     1.6455     Total:     2.6439

    Molecular point group: cs

    Geometry (in Angstrom), charge = 0, multiplicity = 1:

       Center              X                  Y                   Z               Mass
    ------------   -----------------  -----------------  -----------------  -----------------
         H            0.000000000000     0.000000000000     0.950000000000     1.007825032230
         H            0.000000000000     0.908175212500    -0.215241479400     1.007825032230
         O            0.000000000000     0.000000000000     0.000000000000    15.994914619570

  Basis Set: 6-31G
    Blend: 6-31G

  -Total Gradient:
     Atom            X                  Y                   Z
    ------   -----------------  -----------------  -----------------
       1        0.000000000000     0.015913030207    -0.005339614701
       2        0.000000000000    -0.020809174056     0.021577748680
       3        0.000000000000     0.004896143849    -0.016238133979

*** Psi4 exiting successfully. Buy a developer a beer!
