                               Psi4 1.3.1 release

  ==> Input File <==

--------------------------------------------------------------------------
# density fitted hartree fock
molecule h2o {
0 1
H 0.0000000000 0.0000000000 1.2000000000
H 0.0000000000 1.1276311449 -0.4104241720
O 0.0000000000 0.0000000000 0.0000000000
}

set basis 6-31g
energy('hf')

--------------------------------------------------------------------------

    Molecular point group: c2v

    Geometry (in Angstrom), charge = 0, multiplicity = 1:

       Center              X                  Y                   Z               Mass
    ------------   -----------------  -----------------  -----------------  -----------------
         H            0.000000000000    -0.982982453138     0.611261642569     1.007825032230
         H           -0.000000000000     0.982982453138     0.611261642569     1.007825032230
         O            0.000000000000     0.000000000000    -0.077030081032    15.994914619570

  Charge       = 0
  Multiplicity = 1
  Basis Set: 6-31G
    Blend: 6-31G
  Basis Set: (6-31G AUX)
    Blend: CC-PVDZ-JKFIT

    Orbital Energies [Eh]
    ---------------------

    Doubly Occupied:

       1A1   -20.600461     2A1    -1.258464     1B2    -0.601519
       3A1    -0.514847     1B1    -0.491869

  @DF-RHF Final Energy:   -75.90919926912827

   => Energetics <=

    Nuclear Repulsion Energy =              7.3248653472694798
    One-Electron Energy =                -119.5338090339334514
    Two-Electron Energy =                  36.2997444175357060
    Total Energy =                        -75.9091992691282655

  Dipole Moment: [D]
     X:     0.0000      Y:     0.0000      Z:     2.5369     Total:     2.5369

*** Psi4 exiting successfully. Buy a developer a beer!
