                               Psi4 1.3.2 release

  ==> Input File <==

--------------------------------------------------------------------------
# density fitted hartree fock
molecule h2o {
noreorient
nocom
0 1
H 0.0000000000 0.0000000000 0.9500000000
H 0.0000000000 0.9579895123 -0.2868032327
O 0.0000000000 0.0000000000 0.0000000000
}

set scf_type pk
set basis 6-31g
gradient('hf')

--------------------------------------------------------------------------

    Molecular point group: cs
  Charge       = 0
  Multiplicity = 1
  Basis Set: 6-31G
    Blend: 6-31G

    Orbital Energies [Eh]
    ---------------------

    Doubly Occupied:

       1Ap   -20.562194     2Ap    -1.345343     3Ap    -0.704041
       4Ap    -0.553683     1App   -0.499381

  @RHF Final Energy:   -75.98262756474402

   => Energetics <=

    Nuclear Repulsion Energy =              9.0279034717162592
    One-Electron Energy =                -122.6917783884603352
    Two-Electron Energy =                  37.6812473520000637
    Total Energy =                        -75.9826275647440070

  Dipole Moment: [D]
     X:     0.0000      Y:     2.0993      Z:     1.5326     Total:     2.5992

    Molecular point group: cs

    Geometry (in Angstrom), charge = 0, multiplicity = 1:

       Center              X                  Y                   Z               Mass
    ------------   -----------------  -----------------  -----------------  -----------------
         H            0.000000000000     0.000000000000     0.950000000000     1.007825032230
         H            0.000000000000     0.957989512300    -0.286803232700     1.007825032230
         O            0.000000000000     0.000000000000     0.000000000000    15.994914619570

  Basis Set: 6-31G
    Blend: 6-31G

  -Total Gradient:
     Atom            X                  Y                   Z
    ------   -----------------  -----------------  -----------------
       1        0.000000000000     0.006548844159    -0.003558846795
       2        0.000000000000     0.044115752829    -0.006713163337
       3        0.000000000000    -0.050664596988     0.010272010132

*** Psi4 exiting successfully. Buy a developer a beer!
