                               Psi4 1.3.2 release

  ==> Input File <==

--------------------------------------------------------------------------
# density fitted hartree fock
molecule h2o {
noreorient
nocom
0 1
H 0.0000000000 0.0000000000 0.9666666667
H 0.0000000000 0.9730448706 -0.2306158707
O 0.0000000000 0.0000000000 0.0000000000
}

set scf_type pk
set basis 6-31g
gradient('hf')

--------------------------------------------------------------------------

    Molecular point group: cs
  Charge       = 0
  Multiplicity = 1
  Basis Set: 6-31G
    Blend: 6-31G

    Orbital Energies [Eh]
    ---------------------

    Doubly Occupied:

       1Ap   -20.566466     2Ap    -1.344420     3Ap    -0.693923
       4Ap    -0.558953     1App   -0.500675

  @RHF Final Energy:   -75.98151640727637

   => Energetics <=

    Nuclear Repulsion Energy =              8.9558081832661252
    One-Electron Energy =                -122.5457745177838120
    Two-Electron Energy =                  37.6084499272413169
    Total Energy =                        -75.9815164072763594

  Dipole Moment: [D]
     X:     0.0000      Y:     2.0932      Z:     1.6399     Total:     2.6591

    Molecular point group: cs

    Geometry (in Angstrom), charge = 0, multiplicity = 1:

       Center              X                  Y                   Z               Mass
    ------------   -----------------  -----------------  -----------------  -----------------
         H            0.000000000000     0.000000000000     0.966666666700     1.007825032230
         H            0.000000000000     0.973044870600    -0.230615870700     1.007825032230
         O            0.000000000000     0.000000000000     0.000000000000    15.994914619570

  Basis Set: 6-31G
    Blend: 6-31G

  -Total Gradient:
     Atom            X                  Y                   Z
    ------   -----------------  -----------------  -----------------
       1        0.000000000000     0.011964850150     0.011806312370
       2        0.000000000000     0.043148704909     0.001659989741
       3        0.000000000000    -0.055113555059    -0.013466302111

*** Psi4 exiting successfully. Buy a developer a beer!
