                               Psi4 1.3.2 release

  ==> Input File <==

--------------------------------------------------------------------------
# density fitted hartree fock
molecule h2o {
0 1
H 0.0000000000 0.0000000000 0.9166666667
H 0.0000000000 0.8263944962 -0.3564717894
O 0.0000000000 0.0000000000 0.0000000000
}

set scf_type pk
set basis 6-31g
gradient('hf')

--------------------------------------------------------------------------

    Molecular point group: cs
  Charge       = 0
  Multiplicity = 1
  Basis Set: 6-31G
    Blend: 6-31G

    Orbital Energies [Eh]
    ---------------------

    Doubly Occupied:

       1Ap   -20.544338     2Ap    -1.373843     3Ap    -0.754974
       4Ap    -0.550930     1App   -0.500495

  @RHF Final Energy:   -75.98133481856529

   => Energetics <=

    Nuclear Repulsion Energy =              9.6707117865512977
    One-Electron Energy =                -123.8549310920763844
    Two-Electron Energy =                  38.2028844869598032
    Total Energy =                        -75.9813348185652870

  Dipole Moment: [D]
     X:    -2.0360      Y:    -1.3557      Z:     0.0000     Total:     2.4461

    Molecular point group: cs

    Geometry (in Angstrom), charge = 0, multiplicity = 1:

       Center              X                  Y                   Z               Mass
    ------------   -----------------  -----------------  -----------------  -----------------
         H            0.046242917664    -0.885319597345     0.000000000000     1.007825032230
         H           -0.780151578536     0.387818858755     0.000000000000     1.007825032230
         O            0.046242917664     0.031347069355     0.000000000000    15.994914619570

  Basis Set: 6-31G
    Blend: 6-31G

  -Total Gradient:
     Atom            X                  Y                   Z
    ------   -----------------  -----------------  -----------------
       1       -0.000425695440     0.039404326937     0.000000000000
       2        0.059211196536    -0.026013414119     0.000000000000
       3       -0.058785501096    -0.013390912818     0.000000000000

*** Psi4 exiting successfully. Buy a developer a beer!
