                               Psi4 1.2.1 release

  ==> Input File <==

--------------------------------------------------------------------------
# density-fitted hartree fock energies and gradients with 6-31g
molecule h2o {
0 1
H 0.0000000000 0.0000000000 1.0000000000
H 0.0000000000 1.0832885283 -0.1910129954
O 0.0000000000 0.0000000000 0.0000000000
}

set basis 6-31g

gradient('mp2')
--------------------------------------------------------------------------

    Molecular point group: cs
  Charge       = 0
  Multiplicity = 1
  Basis Set: 6-31G
    Blend: 6-31G
  Basis Set: (6-31G AUX)
    Blend: CC-PVDZ-JKFIT

    Orbital Energies [Eh]
    ---------------------

    Doubly Occupied:

       1Ap   -20.582022     2Ap    -1.319096     3Ap    -0.656341
       4Ap    -0.554209     1App   -0.500235

  @DF-RHF Final Energy:   -75.96504216765214

   => Energetics <=

    Nuclear Repulsion Energy =              8.4106653741558439
    One-Electron Energy =                -121.5276085167958797
    Two-Electron Energy =                  37.1519009749878890
    Total Energy =                        -75.9650421676521432

  Dipole Moment: [D]
     X:    -2.0943      Y:    -1.7433      Z:     0.0000     Total:     2.7249

  Basis Set: (6-31G AUX)
    Blend: CC-PVDZ-RI
    Molecular point group: cs

    Geometry (in Angstrom), charge = 0, multiplicity = 1:

       Center              X                  Y                   Z               Mass
    ------------   -----------------  -----------------  -----------------  -----------------
         H            0.060618049181    -0.954731160951     0.000000000000     1.007825032070
         H           -1.022670479119     0.236281834449     0.000000000000     1.007825032070
         O            0.060618049181     0.045268839049     0.000000000000    15.994914619560

  Basis Set: 6-31G
    Blend: 6-31G
  Basis Set: (6-31G AUX)
    Blend: CC-PVDZ-JKFIT
  Basis Set: (6-31G AUX)
    Blend: CC-PVDZ-JKFIT
	 Reference Energy          =     -75.9650421676521432 [Eh]
	 Singles Energy            =      -0.0000000000000000 [Eh]
	 Same-Spin Energy          =      -0.0320293336884458 [Eh]
	 Opposite-Spin Energy      =      -0.1057197881020090 [Eh]
	 Correlation Energy        =      -0.1377491217904548 [Eh]
	 Total Energy              =     -76.1027912894425924 [Eh]

	 ================> DF-SCS-MP2 Energies <==================
	-----------------------------------------------------------
	 SCS Same-Spin Scale       =       0.3333333333333333 [-]
	 SCS Opposite-Spin Scale   =       1.2000000000000000 [-]
	 SCS Same-Spin Energy      =      -0.0106764445628153 [Eh]
	 SCS Opposite-Spin Energy  =      -0.1268637457224107 [Eh]
	 SCS Correlation Energy    =      -0.1375401902852260 [Eh]
	 SCS Total Energy          =     -76.1025823579373650 [Eh]
	-----------------------------------------------------------

  -Total Gradient:
     Atom            X                  Y                   Z
    ------   -----------------  -----------------  -----------------
       1       -0.008640945665    -0.012511981733    -0.000000000000
       2       -0.070893950807     0.004523927899    -0.000000000000
       3        0.079534896472     0.007988053834     0.000000000000

*** Psi4 exiting successfully. Buy a developer a beer!
