                               Psi4 1.3.2 release

  ==> Input File <==

--------------------------------------------------------------------------
# density fitted hartree fock
molecule h2o {
0 1
H 0.0000000000 0.0000000000 0.9166666667
H 0.0000000000 0.8570016998 -0.3696744483
O 0.0000000000 0.0000000000 0.0000000000
}

set scf_type pk
set basis 6-31g
gradient('hf')

--------------------------------------------------------------------------

    Molecular point group: cs
  Charge       = 0
  Multiplicity = 1
  Basis Set: 6-31G
    Blend: 6-31G

    Orbital Energies [Eh]
    ---------------------

    Doubly Occupied:

       1Ap   -20.547442     2Ap    -1.364178     3Ap    -0.744373
       4Ap    -0.548464     1App   -0.499171

  @RHF Final Energy:   -75.98386690186888

   => Energetics <=

    Nuclear Repulsion Energy =              9.4964374324142220
    One-Electron Energy =                -123.5533516032313912
    Two-Electron Energy =                  38.0730472689483008
    Total Energy =                        -75.9838669018688648

  Dipole Moment: [D]
     X:    -2.0582      Y:    -1.3376      Z:     0.0000     Total:     2.4546

    Molecular point group: cs

    Geometry (in Angstrom), charge = 0, multiplicity = 1:

       Center              X                  Y                   Z               Mass
    ------------   -----------------  -----------------  -----------------  -----------------
         H            0.047955618320    -0.886058384294     0.000000000000     1.007825032230
         H           -0.809046081480     0.400282730706     0.000000000000     1.007825032230
         O            0.047955618320     0.030608282406     0.000000000000    15.994914619570

  Basis Set: 6-31G
    Blend: 6-31G

  -Total Gradient:
     Atom            X                  Y                   Z
    ------   -----------------  -----------------  -----------------
       1        0.001028972578     0.040085120984     0.000000000000
       2        0.016494069941    -0.006014236636     0.000000000000
       3       -0.017523042519    -0.034070884348     0.000000000000

*** Psi4 exiting successfully. Buy a developer a beer!
