                               Psi4 1.3.2 release

  ==> Input File <==

--------------------------------------------------------------------------
import psi4
import numpy as np

basis {
assign s_orb
[ s_orb ]
cartesian
****
H     0
S   1   1.00
      0.50000000000      1.0000000000
S   1   1.00
      0.40000000000      1.0000000000
S   1   1.00
      0.30000000000      1.0000000000
S   1   1.00
      0.20000000000      1.0000000000
****
}

molecule h2o {
symmetry c1
units bohr
0 1
H 0.000000000000 0.000000000000 -0.849220457955
H 0.000000000000 0.000000000000  0.849220457955
}

set scf_type pk
set puream false
set mp2_type conv
set e_convergence 10
set d_convergence 10
e, wfn = gradient('hf', return_wfn=True, dertype='gradient')
e, mp2wfn = gradient('mp2', return_wfn=True, dertype='gradient')
e, cepawfn = gradient('lccd', return_wfn=True)

print('HF Gradient')
print(np.asarray(wfn.gradient()))
print('MP2 Gradient')
print(np.asarray(mp2wfn.gradient()))
print('CEPA0 Gradient')
print(np.asarray(cepawfn.gradient()))

mol = wfn.molecule()
bs = wfn.basisset()
basis = psi4.core.BasisSet.build(mol)
mints = psi4.core.MintsHelper(basis)
F = np.asarray(wfn.Fa())
np.save('F2', F)

--------------------------------------------------------------------------

    Molecular point group: c1
  Charge       = 0
  Multiplicity = 1
  Basis Set: ANONYMOUS59EECDCB
    Blend: S_ORB
  @RHF Final Energy:    -1.06085978352767
    Total Energy =                         -1.0608597835276723
    Molecular point group: c1
  Basis Set: ANONYMOUS59EECDCB
    Blend: S_ORB
  Basis Set: ANONYMOUS59EECDCB
    Blend: S_ORB
  @RHF Final Energy:    -1.06085978352770
    Total Energy =                         -1.0608597835276976
    Molecular point group: c1
  Charge       = 0
  Multiplicity = 1
  Basis Set: ANONYMOUS59EECDCB
    Blend: S_ORB

    Orbital Energies [Eh]
    ---------------------

    Doubly Occupied:

       1A     -0.530531

  @RHF Final Energy:    -1.06085978352775

   => Energetics <=

    Nuclear Repulsion Energy =              0.5887752647928965
    One-Electron Energy =                  -2.2382084108242530
    Two-Electron Energy =                   0.5885733625036016
    Total Energy =                         -1.0608597835277549

  Dipole Moment: [D]
     X:     0.0000      Y:     0.0000      Z:    -0.0000     Total:     0.0000

    Molecular point group: c1

    Geometry (in Bohr), charge = 0, multiplicity = 1:

       Center              X                  Y                   Z
    ------------   -----------------  -----------------  -----------------
         H            0.000000000000     0.000000000000    -0.849220457955
         H            0.000000000000     0.000000000000     0.849220457955

  -Total gradient:
     Atom            X                  Y                   Z
    ------   -----------------  -----------------  -----------------
       1        0.000000000000     0.000000000000    -0.043970317420
       2        0.000000000000     0.000000000000     0.043970317421

*** Psi4 exiting successfully. Buy a developer a beer!
