                               Psi4 1.3.2 release

  ==> Input File <==

--------------------------------------------------------------------------
import psi4
import numpy as np

basis {
assign s_orb
[ s_orb ]
cartesian
****
H     0
S   1   1.00
      0.50000000000      1.0000000000
****
}

molecule h2o {
symmetry c1
units bohr
0 1
H 0.000000000000 0.000000000000 -0.849220457955
H 0.000000000000 0.000000000000  0.849220457955
}

set scf_type pk
set mp2_type conv
set puream false
set e_convergence 10
set d_convergence 10
e, wfn = gradient('hf', return_wfn=True, dertype='gradient')
e, mp2wfn = gradient('mp2', return_wfn=True, dertype='gradient')
e, cepawfn = gradient('lccd', return_wfn=True)

print('HF Gradient')
print(np.asarray(wfn.gradient()))
print('MP2 Gradient')
print(np.asarray(mp2wfn.gradient()))
print('CEPA0 Gradient')
print(np.asarray(cepawfn.gradient()))

mol = wfn.molecule()
bs = wfn.basisset()
basis = psi4.core.BasisSet.build(mol)
mints = psi4.core.MintsHelper(basis)
F = np.asarray(wfn.Fa())
np.save('F0', F)

--------------------------------------------------------------------------

    Molecular point group: c1
  Charge       = 0
  Multiplicity = 1
  Basis Set: ANONYMOUSC108BA67
    Blend: S_ORB
  @RHF Final Energy:    -0.93128301145887
    Total Energy =                         -0.9312830114588663
    Molecular point group: c1
  Basis Set: ANONYMOUSC108BA67
    Blend: S_ORB
  Basis Set: ANONYMOUSC108BA67
    Blend: S_ORB
  @RHF Final Energy:    -0.93128301145887
    Total Energy =                         -0.9312830114588663
    Molecular point group: c1
  Charge       = 0
  Multiplicity = 1
  Basis Set: ANONYMOUSC108BA67
    Blend: S_ORB

    Orbital Energies [Eh]
    ---------------------

    Doubly Occupied:

       1A     -0.409724

  @RHF Final Energy:    -0.93128301145887

   => Energetics <=

    Nuclear Repulsion Energy =              0.5887752647928965
    One-Electron Energy =                  -2.2206684676918056
    Two-Electron Energy =                   0.7006101914400428
    Total Energy =                         -0.9312830114588663

  Dipole Moment: [D]
     X:     0.0000      Y:     0.0000      Z:     0.0000     Total:     0.0000

    Molecular point group: c1

    Geometry (in Bohr), charge = 0, multiplicity = 1:

       Center              X                  Y                   Z
    ------------   -----------------  -----------------  -----------------
         H            0.000000000000     0.000000000000    -0.849220457955
         H            0.000000000000     0.000000000000     0.849220457955

  -Total gradient:
     Atom            X                  Y                   Z
    ------   -----------------  -----------------  -----------------
       1        0.000000000000     0.000000000000    -0.094660785984
       2        0.000000000000     0.000000000000     0.094660785984

*** Psi4 exiting successfully. Buy a developer a beer!
