                               Psi4 1.3.2 release

  ==> Input File <==

--------------------------------------------------------------------------
# density fitted hartree fock
molecule h2o {
0 1
H 0.0000000000 0.0000000000 0.9833333333
H 0.0000000000 0.8613849024 -0.3135184647
O 0.0000000000 0.0000000000 0.0000000000
}

set scf_type pk
set basis 6-31g
gradient('hf')

--------------------------------------------------------------------------

    Molecular point group: cs
  Charge       = 0
  Multiplicity = 1
  Basis Set: 6-31G
    Blend: 6-31G

    Orbital Energies [Eh]
    ---------------------

    Doubly Occupied:

       1Ap   -20.554679     2Ap    -1.355297     3Ap    -0.723818
       4Ap    -0.550904     1App   -0.499156

  @RHF Final Energy:   -75.98290160337572

   => Energetics <=

    Nuclear Repulsion Energy =              9.2633450023675650
    One-Electron Energy =                -123.1247851858473723
    Two-Electron Energy =                  37.8785385801040704
    Total Energy =                        -75.9829016033757227

  Dipole Moment: [D]
     X:    -2.0472      Y:    -1.4862      Z:     0.0000     Total:     2.5298

    Molecular point group: cs

    Geometry (in Angstrom), charge = 0, multiplicity = 1:

       Center              X                  Y                   Z               Mass
    ------------   -----------------  -----------------  -----------------  -----------------
         H            0.048200891102    -0.945852210227     0.000000000000     1.007825032230
         H           -0.813184011298     0.350999587773     0.000000000000     1.007825032230
         O            0.048200891102     0.037481123073     0.000000000000    15.994914619570

  Basis Set: 6-31G
    Blend: 6-31G

  -Total Gradient:
     Atom            X                  Y                   Z
    ------   -----------------  -----------------  -----------------
       1       -0.002479531639    -0.033146888970     0.000000000000
       2        0.039672725978    -0.017270258136     0.000000000000
       3       -0.037193194339     0.050417147106     0.000000000000

*** Psi4 exiting successfully. Buy a developer a beer!
