                               Psi4 1.3.1 release

  ==> Input File <==

--------------------------------------------------------------------------
# density fitted hartree fock
molecule h2o {
0 1
H 0.0000000000 0.0000000000 1.2000000000
H 0.0000000000 1.0750771194 -0.3218569612
O 0.0000000000 0.0000000000 0.0000000000
}

set basis 6-31g
energy('hf')

--------------------------------------------------------------------------

    Molecular point group: cs

    Geometry (in Angstrom), charge = 0, multiplicity = 1:

       Center              X                  Y                   Z               Mass
    ------------   -----------------  -----------------  -----------------  -----------------
         H            0.060158559796    -1.150861366542     0.000000000000     1.007825032230
         H           -1.014918559604     0.370995594658     0.000000000000     1.007825032230
         O            0.060158559796     0.049138633458     0.000000000000    15.994914619570

  Charge       = 0
  Multiplicity = 1
  Basis Set: 6-31G
    Blend: 6-31G
  Basis Set: (6-31G AUX)
    Blend: CC-PVDZ-JKFIT

    Orbital Energies [Eh]
    ---------------------

    Doubly Occupied:

       1Ap   -20.596880     2Ap    -1.272766     3Ap    -0.615149
       4Ap    -0.525532     1App   -0.494327

  @DF-RHF Final Energy:   -75.92703138758421

   => Energetics <=

    Nuclear Repulsion Energy =              7.5842024110510415
    One-Electron Energy =                -120.0131425448871454
    Two-Electron Energy =                  36.5019087462519138
    Total Energy =                        -75.9270313875841936

  Dipole Moment: [D]
     X:    -2.0879      Y:    -1.5618      Z:     0.0000     Total:     2.6074

*** Psi4 exiting successfully. Buy a developer a beer!
