                               Psi4 1.3.1 release

  ==> Input File <==

--------------------------------------------------------------------------
# density fitted hartree fock
molecule h2o {
0 1
H 0.0000000000 0.0000000000 1.1611111111
H 0.0000000000 1.0162913093 -0.2408654650
O 0.0000000000 0.0000000000 0.0000000000
}

set basis 6-31g
energy('hf')

--------------------------------------------------------------------------

    Molecular point group: cs

    Geometry (in Angstrom), charge = 0, multiplicity = 1:

       Center              X                  Y                   Z               Mass
    ------------   -----------------  -----------------  -----------------  -----------------
         H            0.056869056552    -1.109616523661     0.000000000000     1.007825032230
         H           -0.959422252748     0.292360052439     0.000000000000     1.007825032230
         O            0.056869056552     0.051494587439     0.000000000000    15.994914619570

  Charge       = 0
  Multiplicity = 1
  Basis Set: 6-31G
    Blend: 6-31G
  Basis Set: (6-31G AUX)
    Blend: CC-PVDZ-JKFIT

    Orbital Energies [Eh]
    ---------------------

    Doubly Occupied:

       1Ap   -20.589165     2Ap    -1.295958     3Ap    -0.637412
       4Ap    -0.539453     1App   -0.497211

  @DF-RHF Final Energy:   -75.94902664947703

   => Energetics <=

    Nuclear Repulsion Energy =              8.0048807195531495
    One-Electron Energy =                -120.7894010075169859
    Two-Electron Energy =                  36.8354936384867955
    Total Energy =                        -75.9490266494770339

  Dipole Moment: [D]
     X:    -2.0881      Y:    -1.6660      Z:     0.0000     Total:     2.6713

*** Psi4 exiting successfully. Buy a developer a beer!
