                               Psi4 1.3.2 release

  ==> Input File <==

--------------------------------------------------------------------------
# density fitted hartree fock
molecule h2o {
noreorient
nocom
0 1
H 0.0000000000 0.0000000000 0.9000000000
H 0.0000000000 0.9579895123 -0.2868032327
O 0.0000000000 0.0000000000 0.0000000000
}

set scf_type pk
set basis 6-31g
gradient('hf')

--------------------------------------------------------------------------

    Molecular point group: cs
  Charge       = 0
  Multiplicity = 1
  Basis Set: 6-31G
    Blend: 6-31G

    Orbital Energies [Eh]
    ---------------------

    Doubly Occupied:

       1Ap   -20.557136     2Ap    -1.360613     3Ap    -0.718499
       4Ap    -0.556965     1App   -0.500952

  @RHF Final Energy:   -75.97931105925225

   => Energetics <=

    Nuclear Repulsion Energy =              9.2841702569910787
    One-Electron Energy =                -123.1386331377724588
    Two-Electron Energy =                  37.8751518215291298
    Total Energy =                        -75.9793110592522538

  Dipole Moment: [D]
     X:     0.0000      Y:     2.1086      Z:     1.5031     Total:     2.5895

    Molecular point group: cs

    Geometry (in Angstrom), charge = 0, multiplicity = 1:

       Center              X                  Y                   Z               Mass
    ------------   -----------------  -----------------  -----------------  -----------------
         H            0.000000000000     0.000000000000     0.900000000000     1.007825032230
         H            0.000000000000     0.957989512300    -0.286803232700     1.007825032230
         O            0.000000000000     0.000000000000     0.000000000000    15.994914619570

  Basis Set: 6-31G
    Blend: 6-31G

  -Total Gradient:
     Atom            X                  Y                   Z
    ------   -----------------  -----------------  -----------------
       1        0.000000000000     0.008984195581    -0.070486655845
       2        0.000000000000     0.045200754755    -0.005091859427
       3        0.000000000000    -0.054184950336     0.075578515272

*** Psi4 exiting successfully. Buy a developer a beer!
