                               Psi4 1.3.2 release

  ==> Input File <==

--------------------------------------------------------------------------
# density fitted hartree fock
molecule h2o {
0 1
H 0.0000000000 0.0000000000 0.9333333333
H 0.0000000000 0.9027404403 -0.1591774962
O 0.0000000000 0.0000000000 0.0000000000
}

set scf_type pk
set basis 6-31g
gradient('hf')

--------------------------------------------------------------------------

    Molecular point group: cs
  Charge       = 0
  Multiplicity = 1
  Basis Set: 6-31G
    Blend: 6-31G

    Orbital Energies [Eh]
    ---------------------

    Doubly Occupied:

       1Ap   -20.557010     2Ap    -1.380094     3Ap    -0.719885
       4Ap    -0.574247     1App   -0.505352

  @RHF Final Energy:   -75.97919809352730

   => Energetics <=

    Nuclear Repulsion Energy =              9.5274687993833798
    One-Electron Energy =                -123.5401586735505646
    Two-Electron Energy =                  38.0334917806398920
    Total Energy =                        -75.9791980935272875

  Dipole Moment: [D]
     X:    -2.0576      Y:    -1.7344      Z:     0.0000     Total:     2.6910

    Molecular point group: cs

    Geometry (in Angstrom), charge = 0, multiplicity = 1:

       Center              X                  Y                   Z               Mass
    ------------   -----------------  -----------------  -----------------  -----------------
         H            0.050515040994    -0.890013557093     0.000000000000     1.007825032230
         H           -0.852225399306     0.202497272407     0.000000000000     1.007825032230
         O            0.050515040994     0.043319776207     0.000000000000    15.994914619570

  Basis Set: 6-31G
    Blend: 6-31G

  -Total Gradient:
     Atom            X                  Y                   Z
    ------   -----------------  -----------------  -----------------
       1       -0.024729335161     0.027670964207     0.000000000000
       2        0.044740027223    -0.033456259692     0.000000000000
       3       -0.020010692063     0.005785295485     0.000000000000

*** Psi4 exiting successfully. Buy a developer a beer!
