                               Psi4 1.2.1 release

  ==> Input File <==

--------------------------------------------------------------------------
# density-fitted hartree fock energies and gradients with 6-31g
molecule h2o {
0 1
H 0.0000000000 0.0000000000 0.9000000000
H 0.0000000000 0.8863269777 -0.1562833599
O 0.0000000000 0.0000000000 0.0000000000
}

set basis 6-31g

gradient('mp2')
--------------------------------------------------------------------------

    Molecular point group: c2v
  Charge       = 0
  Multiplicity = 1
  Basis Set: 6-31G
    Blend: 6-31G
  Basis Set: (6-31G AUX)
    Blend: CC-PVDZ-JKFIT

    Orbital Energies [Eh]
    ---------------------

    Doubly Occupied:

       1A1   -20.551866     2A1    -1.395410     1B2    -0.734318
       3A1    -0.577971     1B1    -0.506933

  @DF-RHF Final Energy:   -75.97406880684471

   => Energetics <=

    Nuclear Repulsion Energy =              9.7913680335709508
    One-Electron Energy =                -123.9978769128026101
    Two-Electron Energy =                  38.2324400723869502
    Total Energy =                        -75.9740688068447128

  Dipole Moment: [D]
     X:     0.0000      Y:     0.0000      Z:     2.6787     Total:     2.6787

  Basis Set: (6-31G AUX)
    Blend: CC-PVDZ-RI
    Molecular point group: c2v

    Geometry (in Angstrom), charge = 0, multiplicity = 1:

       Center              X                  Y                   Z               Mass
    ------------   -----------------  -----------------  -----------------  -----------------
         H            0.000000000000    -0.689439998803     0.513765104223     1.007825032070
         H           -0.000000000000     0.689439998803     0.513765104223     1.007825032070
         O            0.000000000000     0.000000000000    -0.064743744491    15.994914619560

  Basis Set: 6-31G
    Blend: 6-31G
  Basis Set: (6-31G AUX)
    Blend: CC-PVDZ-JKFIT
  Basis Set: (6-31G AUX)
    Blend: CC-PVDZ-JKFIT
	 Reference Energy          =     -75.9740688068447128 [Eh]
	 Singles Energy            =      -0.0000000000000000 [Eh]
	 Same-Spin Energy          =      -0.0288847574927052 [Eh]
	 Opposite-Spin Energy      =      -0.0948869386292140 [Eh]
	 Correlation Energy        =      -0.1237716961219192 [Eh]
	 Total Energy              =     -76.0978405029666334 [Eh]

	 ================> DF-SCS-MP2 Energies <==================
	-----------------------------------------------------------
	 SCS Same-Spin Scale       =       0.3333333333333333 [-]
	 SCS Opposite-Spin Scale   =       1.2000000000000000 [-]
	 SCS Same-Spin Energy      =      -0.0096282524975684 [Eh]
	 SCS Opposite-Spin Energy  =      -0.1138643263550568 [Eh]
	 SCS Correlation Energy    =      -0.1234925788526252 [Eh]
	 SCS Total Energy          =     -76.0975613856973325 [Eh]
	-----------------------------------------------------------

  -Total Gradient:
     Atom            X                  Y                   Z
    ------   -----------------  -----------------  -----------------
       1       -0.000000000000     0.092912486157    -0.043650170808
       2       -0.000000000000    -0.092912486174    -0.043650170820
       3        0.000000000000     0.000000000016     0.087300341628

*** Psi4 exiting successfully. Buy a developer a beer!
