                               Psi4 1.3.1 release

  ==> Input File <==

--------------------------------------------------------------------------
# density fitted hartree fock
molecule h2o {
0 1
H 0.0000000000 0.0000000000 0.8888888889
H 0.0000000000 0.8649287738 -0.2049918851
O 0.0000000000 0.0000000000 0.0000000000
}

set basis 6-31g
energy('hf')

--------------------------------------------------------------------------

    Molecular point group: c2v

    Geometry (in Angstrom), charge = 0, multiplicity = 1:

       Center              X                  Y                   Z               Mass
    ------------   -----------------  -----------------  -----------------  -----------------
         H            0.000000000000    -0.697258368805     0.489619479858     1.007825032230
         H           -0.000000000000     0.697258368805     0.489619479858     1.007825032230
         O            0.000000000000     0.000000000000    -0.061700956811    15.994914619570

  Charge       = 0
  Multiplicity = 1
  Basis Set: 6-31G
    Blend: 6-31G
  Basis Set: (6-31G AUX)
    Blend: CC-PVDZ-JKFIT

    Orbital Energies [Eh]
    ---------------------

    Doubly Occupied:

       1A1   -20.547490     2A1    -1.398146     1B2    -0.748129
       3A1    -0.573035     1B1    -0.506356

  @DF-RHF Final Energy:   -75.97310729669731

   => Energetics <=

    Nuclear Repulsion Energy =              9.9046597522813720
    One-Electron Energy =                -124.2092189645310185
    Two-Electron Energy =                  38.3314519155523286
    Total Energy =                        -75.9731072966973215

  Dipole Moment: [D]
     X:     0.0000      Y:     0.0000      Z:     2.6180     Total:     2.6180

*** Psi4 exiting successfully. Buy a developer a beer!
