                               Psi4 1.3.2 release

  ==> Input File <==

--------------------------------------------------------------------------
# density fitted hartree fock
molecule h2o {
0 1
H 0.0000000000 0.0000000000 0.9833333333
H 0.0000000000 0.9240310771 -0.3363198076
O 0.0000000000 0.0000000000 0.0000000000
}

set scf_type pk
set basis 6-31g
gradient('hf')

--------------------------------------------------------------------------

    Molecular point group: c2v
  Charge       = 0
  Multiplicity = 1
  Basis Set: 6-31G
    Blend: 6-31G

    Orbital Energies [Eh]
    ---------------------

    Doubly Occupied:

       1A1   -20.561167     2A1    -1.336909     1B2    -0.704419
       3A1    -0.546242     1B1    -0.497100

  @RHF Final Energy:   -75.98323127854134

   => Energetics <=

    Nuclear Repulsion Energy =              8.9388187289178234
    One-Electron Energy =                -122.5524258565289273
    Two-Electron Energy =                  37.6303758490697646
    Total Energy =                        -75.9832312785413393

  Dipole Moment: [D]
     X:     0.0000      Y:     0.0000      Z:     2.5422     Total:     2.5422

    Molecular point group: c2v

    Geometry (in Angstrom), charge = 0, multiplicity = 1:

       Center              X                  Y                   Z               Mass
    ------------   -----------------  -----------------  -----------------  -----------------
         H            0.000000000000    -0.805499510201     0.500894957110     1.007825032230
         H           -0.000000000000     0.805499510201     0.500894957110     1.007825032230
         O            0.000000000000     0.000000000000    -0.063121871957    15.994914619570

  Basis Set: 6-31G
    Blend: 6-31G

  -Total Gradient:
     Atom            X                  Y                   Z
    ------   -----------------  -----------------  -----------------
       1        0.000000000000    -0.026332760879     0.018394850562
       2       -0.000000000000     0.026332760879     0.018394850562
       3       -0.000000000000     0.000000000000    -0.036789701124

*** Psi4 exiting successfully. Buy a developer a beer!
