                               Psi4 1.3.2 release

  ==> Input File <==

--------------------------------------------------------------------------
# density fitted hartree fock
molecule h2o {
0 1
H 0.0000000000 0.0000000000 0.9833333333
H 0.0000000000 0.8638448856 -0.4338392075
O 0.0000000000 0.0000000000 0.0000000000
}

set scf_type pk
set basis 6-31g
gradient('hf')

--------------------------------------------------------------------------

    Molecular point group: cs
  Charge       = 0
  Multiplicity = 1
  Basis Set: 6-31G
    Blend: 6-31G

    Orbital Energies [Eh]
    ---------------------

    Doubly Occupied:

       1Ap   -20.553880     2Ap    -1.333945     3Ap    -0.718685
       4Ap    -0.534901     1App   -0.493860

  @RHF Final Energy:   -75.98297698691336

   => Energetics <=

    Nuclear Repulsion Energy =              9.0034070967945858
    One-Electron Energy =                -122.7022253228794710
    Two-Electron Energy =                  37.7158412391715316
    Total Energy =                        -75.9829769869133429

  Dipole Moment: [D]
     X:    -2.0438      Y:    -1.2769      Z:     0.0000     Total:     2.4099

    Molecular point group: cs

    Geometry (in Angstrom), charge = 0, multiplicity = 1:

       Center              X                  Y                   Z               Mass
    ------------   -----------------  -----------------  -----------------  -----------------
         H            0.048338545456    -0.952585050569     0.000000000000     1.007825032230
         H           -0.815506340144     0.464587490231     0.000000000000     1.007825032230
         O            0.048338545456     0.030748282731     0.000000000000    15.994914619570

  Basis Set: 6-31G
    Blend: 6-31G

  -Total Gradient:
     Atom            X                  Y                   Z
    ------   -----------------  -----------------  -----------------
       1        0.009791522793    -0.036624536861     0.000000000000
       2       -0.013928258644     0.018140936058     0.000000000000
       3        0.004136735851     0.018483600802     0.000000000000

*** Psi4 exiting successfully. Buy a developer a beer!
