                               Psi4 1.3.2 release

  ==> Input File <==

--------------------------------------------------------------------------
# density fitted hartree fock
molecule h2o {
0 1
H 0.0000000000 0.0000000000 0.9333333333
H 0.0000000000 0.8770464461 -0.3192188004
O 0.0000000000 0.0000000000 0.0000000000
}

set scf_type pk
set basis 6-31g
gradient('hf')

--------------------------------------------------------------------------

    Molecular point group: c2v
  Charge       = 0
  Multiplicity = 1
  Basis Set: 6-31G
    Blend: 6-31G

    Orbital Energies [Eh]
    ---------------------

    Doubly Occupied:

       1A1   -20.551575     2A1    -1.363227     1B2    -0.733670
       3A1    -0.553574     1B1    -0.500177

  @RHF Final Energy:   -75.98465181009036

   => Energetics <=

    Nuclear Repulsion Energy =              9.4176840178550858
    One-Electron Energy =                -123.4002252273178755
    Two-Electron Energy =                  37.9978893993724469
    Total Energy =                        -75.9846518100903552

  Dipole Moment: [D]
     X:    -0.0000      Y:     0.0000      Z:     2.5223     Total:     2.5223

    Molecular point group: c2v

    Geometry (in Angstrom), charge = 0, multiplicity = 1:

       Center              X                  Y                   Z               Mass
    ------------   -----------------  -----------------  -----------------  -----------------
         H            0.000000000000    -0.764541907984     0.475425722025     1.007825032230
         H           -0.000000000000     0.764541907984     0.475425722025     1.007825032230
         O           -0.000000000000     0.000000000000    -0.059912285251    15.994914619570

  Basis Set: 6-31G
    Blend: 6-31G

  -Total Gradient:
     Atom            X                  Y                   Z
    ------   -----------------  -----------------  -----------------
       1       -0.000000000000     0.018899031094    -0.008186860569
       2        0.000000000000    -0.018899031094    -0.008186860569
       3       -0.000000000000     0.000000000000     0.016373721138

*** Psi4 exiting successfully. Buy a developer a beer!
