                               Psi4 1.3.2 release

  ==> Input File <==

--------------------------------------------------------------------------
# density fitted hartree fock
molecule h2o {
noreorient
nocom
0 1
H 0.0000000000 0.0000000000 0.9546306473
H 0.0000000000 0.8880195334 -0.3503440896
O 0.0000000000 0.0000000000 0.0000000000
}

set scf_type pk
set basis 6-31g
set e_convergence 10
gradient('hf')

--------------------------------------------------------------------------

    Molecular point group: cs
  Charge       = 0
  Multiplicity = 1
  Basis Set: 6-31G
    Blend: 6-31G

    Orbital Energies [Eh]
    ---------------------

    Doubly Occupied:

       1Ap   -20.554446     2Ap    -1.349885     3Ap    -0.723371
       4Ap    -0.547531     1App   -0.497979

  @RHF Final Energy:   -75.98530775071835

   => Energetics <=

    Nuclear Repulsion Energy =              9.2044753597396092
    One-Electron Energy =                -123.0331416732999372
    Two-Electron Energy =                  37.8433585628419777
    Total Energy =                        -75.9853077507183627

  Dipole Moment: [D]
     X:     0.0000      Y:     2.0693      Z:     1.4081     Total:     2.5030

    Molecular point group: cs

    Geometry (in Angstrom), charge = 0, multiplicity = 1:

       Center              X                  Y                   Z               Mass
    ------------   -----------------  -----------------  -----------------  -----------------
         H            0.000000000000     0.000000000000     0.954630647300     1.007825032230
         H            0.000000000000     0.888019533400    -0.350344089600     1.007825032230
         O            0.000000000000     0.000000000000     0.000000000000    15.994914619570

  Basis Set: 6-31G
    Blend: 6-31G

  -Total Gradient:
     Atom            X                  Y                   Z
    ------   -----------------  -----------------  -----------------
       1        0.000000000000    -0.000378953621     0.005420055474
       2        0.000000000000     0.004902787284    -0.002341641383
       3        0.000000000000    -0.004523833663    -0.003078414091

*** Psi4 exiting successfully. Buy a developer a beer!
