                               Psi4 1.3.2 release

  ==> Input File <==

--------------------------------------------------------------------------
# density fitted hartree fock
molecule h2o {
0 1
H 0.0000000000 0.0000000000 0.9833333333
H 0.0000000000 0.7794228634 -0.4500000000
O 0.0000000000 0.0000000000 0.0000000000
}

set scf_type pk
set basis 6-31g
gradient('hf')

--------------------------------------------------------------------------

    Molecular point group: cs
  Charge       = 0
  Multiplicity = 1
  Basis Set: 6-31G
    Blend: 6-31G

    Orbital Energies [Eh]
    ---------------------

    Doubly Occupied:

       1Ap   -20.544884     2Ap    -1.349385     3Ap    -0.743785
       4Ap    -0.533419     1App   -0.494567

  @RHF Final Energy:   -75.97958984922045

   => Energetics <=

    Nuclear Repulsion Energy =              9.3333087972896305
    One-Electron Energy =                -123.2937154334812817
    Two-Electron Energy =                  37.9808167869712179
    Total Energy =                        -75.9795898492204316

  Dipole Moment: [D]
     X:    -1.9714      Y:    -1.2353      Z:     0.0000     Total:     2.3264

    Molecular point group: cs

    Geometry (in Angstrom), charge = 0, multiplicity = 1:

       Center              X                  Y                   Z               Mass
    ------------   -----------------  -----------------  -----------------  -----------------
         H            0.043614505498    -0.953489367092     0.000000000000     1.007825032230
         H           -0.735808357902     0.479843966208     0.000000000000     1.007825032230
         O            0.043614505498     0.029843966208     0.000000000000    15.994914619570

  Basis Set: 6-31G
    Blend: 6-31G

  -Total Gradient:
     Atom            X                  Y                   Z
    ------   -----------------  -----------------  -----------------
       1        0.012101327566    -0.040439859226     0.000000000000
       2        0.060358601341    -0.019580812739     0.000000000000
       3       -0.072459928907     0.060020671965     0.000000000000

*** Psi4 exiting successfully. Buy a developer a beer!
