                               Psi4 1.3.2 release

  ==> Input File <==

--------------------------------------------------------------------------
# density fitted hartree fock
molecule h2o {
noreorient
nocom
0 1
H 0.0000000000 0.0000000000 0.9333333333
H 0.0000000000 0.8621905611 -0.2581229094
O 0.0000000000 0.0000000000 0.0000000000
}

set scf_type pk
set basis 6-31g
gradient('hf')

--------------------------------------------------------------------------

    Molecular point group: cs
  Charge       = 0
  Multiplicity = 1
  Basis Set: 6-31G
    Blend: 6-31G

    Orbital Energies [Eh]
    ---------------------

    Doubly Occupied:

       1Ap   -20.550755     2Ap    -1.377114     3Ap    -0.737848
       4Ap    -0.562389     1App   -0.502933

  @RHF Final Energy:   -75.98106102493514

   => Energetics <=

    Nuclear Repulsion Energy =              9.5994167415223863
    One-Electron Energy =                -123.6988754998800175
    Two-Electron Energy =                  38.1183977334224835
    Total Energy =                        -75.9810610249351441

  Dipole Moment: [D]
     X:     0.0000      Y:     2.0535      Z:     1.5535     Total:     2.5749

    Molecular point group: cs

    Geometry (in Angstrom), charge = 0, multiplicity = 1:

       Center              X                  Y                   Z               Mass
    ------------   -----------------  -----------------  -----------------  -----------------
         H            0.000000000000     0.000000000000     0.933333333300     1.007825032230
         H            0.000000000000     0.862190561100    -0.258122909400     1.007825032230
         O            0.000000000000     0.000000000000     0.000000000000    15.994914619570

  Basis Set: 6-31G
    Blend: 6-31G

  -Total Gradient:
     Atom            X                  Y                   Z
    ------   -----------------  -----------------  -----------------
       1        0.000000000000     0.011878859095    -0.022188531987
       2        0.000000000000    -0.063220436840     0.031785987946
       3        0.000000000000     0.051341577745    -0.009597455959

*** Psi4 exiting successfully. Buy a developer a beer!
