                               Psi4 1.2.1 release

  ==> Input File <==

--------------------------------------------------------------------------
# density-fitted hartree fock energies and gradients with 6-31g
molecule h2o {
0 1
H 0.0000000000 0.0000000000 0.9000000000
H 0.0000000000 1.1817693036 -0.2083778132
O 0.0000000000 0.0000000000 0.0000000000
}

set basis 6-31g

gradient('mp2')
--------------------------------------------------------------------------

    Molecular point group: cs
  Charge       = 0
  Multiplicity = 1
  Basis Set: 6-31G
    Blend: 6-31G
  Basis Set: (6-31G AUX)
    Blend: CC-PVDZ-JKFIT

    Orbital Energies [Eh]
    ---------------------

    Doubly Occupied:

       1Ap   -20.579729     2Ap    -1.336208     3Ap    -0.665702
       4Ap    -0.546374     1App   -0.501748

  @DF-RHF Final Energy:   -75.94211182590541

   => Energetics <=

    Nuclear Repulsion Energy =              8.5582557501891703
    One-Electron Energy =                -121.7412141861883299
    Two-Electron Energy =                  37.2408466100937261
    Total Energy =                        -75.9421118259054282

  Dipole Moment: [D]
     X:    -2.0990      Y:    -1.7109      Z:     0.0000     Total:     2.7080

  Basis Set: (6-31G AUX)
    Blend: CC-PVDZ-RI
    Molecular point group: cs

    Geometry (in Angstrom), charge = 0, multiplicity = 1:

       Center              X                  Y                   Z               Mass
    ------------   -----------------  -----------------  -----------------  -----------------
         H            0.066128780925    -0.861298595306     0.000000000000     1.007825032070
         H           -1.115640522675     0.247079217894     0.000000000000     1.007825032070
         O            0.066128780925     0.038701404694     0.000000000000    15.994914619560

  Basis Set: 6-31G
    Blend: 6-31G
  Basis Set: (6-31G AUX)
    Blend: CC-PVDZ-JKFIT
  Basis Set: (6-31G AUX)
    Blend: CC-PVDZ-JKFIT
	 Reference Energy          =     -75.9421118259054140 [Eh]
	 Singles Energy            =      -0.0000000000000000 [Eh]
	 Same-Spin Energy          =      -0.0316185671124841 [Eh]
	 Opposite-Spin Energy      =      -0.1053736368781968 [Eh]
	 Correlation Energy        =      -0.1369922039906810 [Eh]
	 Total Energy              =     -76.0791040298961008 [Eh]

	 ================> DF-SCS-MP2 Energies <==================
	-----------------------------------------------------------
	 SCS Same-Spin Scale       =       0.3333333333333333 [-]
	 SCS Opposite-Spin Scale   =       1.2000000000000000 [-]
	 SCS Same-Spin Energy      =      -0.0105395223708280 [Eh]
	 SCS Opposite-Spin Energy  =      -0.1264483642538362 [Eh]
	 SCS Correlation Energy    =      -0.1369878866246642 [Eh]
	 SCS Total Energy          =     -76.0790997125300805 [Eh]
	-----------------------------------------------------------

  -Total Gradient:
     Atom            X                  Y                   Z
    ------   -----------------  -----------------  -----------------
       1       -0.008539114306     0.104147460598     0.000000000000
       2       -0.097642087444     0.010713799764     0.000000000000
       3        0.106181201750    -0.114861260361    -0.000000000000

*** Psi4 exiting successfully. Buy a developer a beer!
