                               Psi4 1.3.2 release

  ==> Input File <==

--------------------------------------------------------------------------
# density fitted hartree fock
molecule h2o {
0 1
H 0.0000000000 0.0000000000 0.9000000000
H 0.0000000000 0.8042693763 -0.4039192622
O 0.0000000000 0.0000000000 0.0000000000
}

set scf_type pk
set basis 6-31g
gradient('hf')

--------------------------------------------------------------------------

    Molecular point group: c2v
  Charge       = 0
  Multiplicity = 1
  Basis Set: 6-31G
    Blend: 6-31G

    Orbital Energies [Eh]
    ---------------------

    Doubly Occupied:

       1A1   -20.540334     2A1    -1.374798     1B2    -0.765996
       3A1    -0.545969     1B1    -0.499673

  @RHF Final Energy:   -75.97954087623097

   => Energetics <=

    Nuclear Repulsion Energy =              9.7530085331205143
    One-Electron Energy =                -124.0115583791378668
    Two-Electron Energy =                  38.2790089697864033
    Total Energy =                        -75.9795408762309563

  Dipole Moment: [D]
     X:     0.0000      Y:     0.0000      Z:     2.3738     Total:     2.3738

    Molecular point group: c2v

    Geometry (in Angstrom), charge = 0, multiplicity = 1:

       Center              X                  Y                   Z               Mass
    ------------   -----------------  -----------------  -----------------  -----------------
         H            0.000000000000    -0.766005005204     0.419601503579     1.007825032230
         H           -0.000000000000     0.766005005204     0.419601503579     1.007825032230
         O            0.000000000000     0.000000000000    -0.052877418720    15.994914619570

  Basis Set: 6-31G
    Blend: 6-31G

  -Total Gradient:
     Atom            X                  Y                   Z
    ------   -----------------  -----------------  -----------------
       1       -0.000000000000     0.050390893988    -0.036375913068
       2        0.000000000000    -0.050390893988    -0.036375913068
       3       -0.000000000000     0.000000000000     0.072751826135

*** Psi4 exiting successfully. Buy a developer a beer!
