                               Psi4 1.3.2 release

  ==> Input File <==

--------------------------------------------------------------------------
# density fitted hartree fock
molecule h2o {
0 1
H 0.0000000000 0.0000000000 0.9000000000
H 0.0000000000 0.9243926271 -0.2190850772
O 0.0000000000 0.0000000000 0.0000000000
}

set scf_type pk
set basis 6-31g
gradient('hf')

--------------------------------------------------------------------------

    Molecular point group: cs
  Charge       = 0
  Multiplicity = 1
  Basis Set: 6-31G
    Blend: 6-31G

    Orbital Energies [Eh]
    ---------------------

    Doubly Occupied:

       1Ap   -20.554725     2Ap    -1.376641     3Ap    -0.726595
       4Ap    -0.567559     1App   -0.503918

  @RHF Final Energy:   -75.97996833346937

   => Energetics <=

    Nuclear Repulsion Energy =              9.5245991498570710
    One-Electron Energy =                -123.5502598431175301
    Two-Electron Energy =                  38.0456923597910901
    Total Energy =                        -75.9799683334693725

  Dipole Moment: [D]
     X:    -2.0824      Y:    -1.6166      Z:     0.0000     Total:     2.6363

    Molecular point group: cs

    Geometry (in Angstrom), charge = 0, multiplicity = 1:

       Center              X                  Y                   Z               Mass
    ------------   -----------------  -----------------  -----------------  -----------------
         H            0.051726641865    -0.861897746347     0.000000000000     1.007825032230
         H           -0.872665985235     0.257187330853     0.000000000000     1.007825032230
         O            0.051726641865     0.038102253653     0.000000000000    15.994914619570

  Basis Set: 6-31G
    Blend: 6-31G

  -Total Gradient:
     Atom            X                  Y                   Z
    ------   -----------------  -----------------  -----------------
       1       -0.018367801832     0.072277280445     0.000000000000
       2        0.000938171895    -0.018105467189     0.000000000000
       3        0.017429629937    -0.054171813256     0.000000000000

*** Psi4 exiting successfully. Buy a developer a beer!
