                               Psi4 1.3.2 release

  ==> Input File <==

--------------------------------------------------------------------------
# density fitted hartree fock
molecule h2o {
0 1
H 0.0000000000 0.0000000000 0.9333333333
H 0.0000000000 0.8787387630 -0.4413191939
O 0.0000000000 0.0000000000 0.0000000000
}

set scf_type pk
set basis 6-31g
gradient('hf')

--------------------------------------------------------------------------

    Molecular point group: cs
  Charge       = 0
  Multiplicity = 1
  Basis Set: 6-31G
    Blend: 6-31G

    Orbital Energies [Eh]
    ---------------------

    Doubly Occupied:

       1Ap   -20.550805     2Ap    -1.342982     3Ap    -0.728791
       4Ap    -0.537239     1App   -0.495032

  @RHF Final Energy:   -75.98314151302765

   => Energetics <=

    Nuclear Repulsion Energy =              9.1653217013982626
    One-Electron Energy =                -122.9872296243251952
    Two-Electron Energy =                  37.8387664098992786
    Total Energy =                        -75.9831415130276469

  Dipole Moment: [D]
     X:    -2.0679      Y:    -1.2248      Z:     0.0000     Total:     2.4034

    Molecular point group: cs

    Geometry (in Angstrom), charge = 0, multiplicity = 1:

       Center              X                  Y                   Z               Mass
    ------------   -----------------  -----------------  -----------------  -----------------
         H            0.049171968657    -0.905801483267     0.000000000000     1.007825032230
         H           -0.829566794343     0.468851043933     0.000000000000     1.007825032230
         O            0.049171968657     0.027531850033     0.000000000000    15.994914619570

  Basis Set: 6-31G
    Blend: 6-31G

  -Total Gradient:
     Atom            X                  Y                   Z
    ------   -----------------  -----------------  -----------------
       1        0.009099613453     0.016823457709     0.000000000000
       2       -0.029551582412     0.024506321190     0.000000000000
       3        0.020451968959    -0.041329778899     0.000000000000

*** Psi4 exiting successfully. Buy a developer a beer!
