                               Psi4 1.3.2 release

  ==> Input File <==

--------------------------------------------------------------------------
# density fitted hartree fock
molecule h2o {
0 1
H 0.0000000000 0.0000000000 0.9166666667
H 0.0000000000 0.8941235448 -0.2676830172
O 0.0000000000 0.0000000000 0.0000000000
}

set scf_type pk
set basis 6-31g
gradient('hf')

--------------------------------------------------------------------------

    Molecular point group: cs
  Charge       = 0
  Multiplicity = 1
  Basis Set: 6-31G
    Blend: 6-31G

    Orbital Energies [Eh]
    ---------------------

    Doubly Occupied:

       1Ap   -20.552409     2Ap    -1.371973     3Ap    -0.732809
       4Ap    -0.561200     1App   -0.502338

  @RHF Final Energy:   -75.98285616452333

   => Energetics <=

    Nuclear Repulsion Energy =              9.5106762219991410
    One-Electron Energy =                -123.5456086111166769
    Two-Electron Energy =                  38.0520762245942024
    Total Energy =                        -75.9828561645233265

  Dipole Moment: [D]
     X:    -2.0744      Y:    -1.5323      Z:     0.0000     Total:     2.5789

    Molecular point group: cs

    Geometry (in Angstrom), charge = 0, multiplicity = 1:

       Center              X                  Y                   Z               Mass
    ------------   -----------------  -----------------  -----------------  -----------------
         H            0.050032861610    -0.880351205250     0.000000000000     1.007825032230
         H           -0.844090683190     0.303998478650     0.000000000000     1.007825032230
         O            0.050032861610     0.036315461450     0.000000000000    15.994914619570

  Basis Set: 6-31G
    Blend: 6-31G

  -Total Gradient:
     Atom            X                  Y                   Z
    ------   -----------------  -----------------  -----------------
       1       -0.011335083138     0.044786828466     0.000000000000
       2        0.018257662757    -0.017086854374     0.000000000000
       3       -0.006922579619    -0.027699974091     0.000000000000

*** Psi4 exiting successfully. Buy a developer a beer!
