                               Psi4 1.3.1 release

  ==> Input File <==

--------------------------------------------------------------------------
# density fitted hartree fock
molecule h2o {
0 1
H 0.0000000000 0.0000000000 1.0833333333
H 0.0000000000 0.8708366560 -0.5027777778
O 0.0000000000 0.0000000000 0.0000000000
}

set basis 6-31g
energy('hf')

--------------------------------------------------------------------------

    Molecular point group: cs

    Geometry (in Angstrom), charge = 0, multiplicity = 1:

       Center              X                  Y                   Z               Mass
    ------------   -----------------  -----------------  -----------------  -----------------
         H            0.048729787005    -1.050846932585     0.000000000000     1.007825032230
         H           -0.822106868995     0.535264178515     0.000000000000     1.007825032230
         O            0.048729787005     0.032486400715     0.000000000000    15.994914619570

  Charge       = 0
  Multiplicity = 1
  Basis Set: 6-31G
    Blend: 6-31G
  Basis Set: (6-31G AUX)
    Blend: CC-PVDZ-JKFIT

    Orbital Energies [Eh]
    ---------------------

    Doubly Occupied:

       1Ap   -20.562789     2Ap    -1.300482     3Ap    -0.683298
       4Ap    -0.518566     1App   -0.487921

  @DF-RHF Final Energy:   -75.96497433640903

   => Energetics <=

    Nuclear Repulsion Energy =              8.4102509700035846
    One-Electron Energy =                -121.6443271185606250
    Two-Electron Energy =                  37.2691018121479942
    Total Energy =                        -75.9649743364090426

  Dipole Moment: [D]
     X:    -2.0123      Y:    -1.2336      Z:     0.0000     Total:     2.3603

*** Psi4 exiting successfully. Buy a developer a beer!
