                               Psi4 1.3.2 release

  ==> Input File <==

--------------------------------------------------------------------------
# density fitted hartree fock
molecule h2o {
0 1
H 0.0000000000 0.0000000000 0.9500000000
H 0.0000000000 0.8723053015 -0.3762757777
O 0.0000000000 0.0000000000 0.0000000000
}

set scf_type pk
set basis 6-31g
gradient('hf')

--------------------------------------------------------------------------

    Molecular point group: c2v
  Charge       = 0
  Multiplicity = 1
  Basis Set: 6-31G
    Blend: 6-31G

    Orbital Energies [Eh]
    ---------------------

    Doubly Occupied:

       1A1   -20.552116     2A1    -1.350342     1B2    -0.728938
       3A1    -0.544798     1B1    -0.497349

  @RHF Final Energy:   -75.98527274166590

   => Energetics <=

    Nuclear Repulsion Energy =              9.2458136227697363
    One-Electron Energy =                -123.1150857394502225
    Two-Electron Energy =                  37.8839993750145965
    Total Energy =                        -75.9852727416658951

  Dipole Moment: [D]
     X:     0.0000      Y:     0.0000      Z:     2.4663     Total:     2.4663

    Molecular point group: c2v

    Geometry (in Angstrom), charge = 0, multiplicity = 1:

       Center              X                  Y                   Z               Mass
    ------------   -----------------  -----------------  -----------------  -----------------
         H            0.000000000000    -0.793713420817     0.463610212894     1.007825032230
         H           -0.000000000000     0.793713420817     0.463610212894     1.007825032230
         O            0.000000000000     0.000000000000    -0.058423316268    15.994914619570

  Basis Set: 6-31G
    Blend: 6-31G

  -Total Gradient:
     Atom            X                  Y                   Z
    ------   -----------------  -----------------  -----------------
       1        0.000000000000    -0.003001748120    -0.001646399019
       2       -0.000000000000     0.003001748120    -0.001646399019
       3       -0.000000000000     0.000000000000     0.003292798039

*** Psi4 exiting successfully. Buy a developer a beer!
