                               Psi4 1.3.2 release

  ==> Input File <==

--------------------------------------------------------------------------
# density fitted hartree fock
molecule h2o {
noreorient
nocom
0 1
H 0.0000000000 0.0000000000 1.0000000000
H 0.0000000000 0.9848077530 -0.1736481777
O 0.0000000000 0.0000000000 0.0000000000
}

set scf_type pk
set basis 6-31g
gradient('hf')

--------------------------------------------------------------------------

    Molecular point group: cs
  Charge       = 0
  Multiplicity = 1
  Basis Set: 6-31G
    Blend: 6-31G

    Orbital Energies [Eh]
    ---------------------

    Doubly Occupied:

       1Ap   -20.572363     2Ap    -1.339537     3Ap    -0.679500
       4Ap    -0.562986     1App   -0.501662

  @RHF Final Energy:   -75.97834106190869

   => Energetics <=

    Nuclear Repulsion Energy =              8.8122312648212144
    One-Electron Energy =                -122.2690475741229079
    Two-Electron Energy =                  37.4784752473930070
    Total Energy =                        -75.9783410619086936

  Dipole Moment: [D]
     X:     0.0000      Y:     2.0823      Z:     1.7473     Total:     2.7183

    Molecular point group: cs

    Geometry (in Angstrom), charge = 0, multiplicity = 1:

       Center              X                  Y                   Z               Mass
    ------------   -----------------  -----------------  -----------------  -----------------
         H            0.000000000000     0.000000000000     1.000000000000     1.007825032230
         H            0.000000000000     0.984807753000    -0.173648177700     1.007825032230
         O            0.000000000000     0.000000000000     0.000000000000    15.994914619570

  Basis Set: 6-31G
    Blend: 6-31G

  -Total Gradient:
     Atom            X                  Y                   Z
    ------   -----------------  -----------------  -----------------
       1        0.000000000000     0.016426622290     0.038999624868
       2        0.000000000000     0.041259585956     0.009404851199
       3        0.000000000000    -0.057686208246    -0.048404476066

*** Psi4 exiting successfully. Buy a developer a beer!
