                               Psi4 1.3.1 release

  ==> Input File <==

--------------------------------------------------------------------------
# density fitted hartree fock
molecule h2o {
0 1
H 0.0000000000 0.0000000000 1.0833333333
H 0.0000000000 0.9277777778 0.0000000000
O 0.0000000000 0.0000000000 0.0000000000
}

set basis 6-31g
energy('hf')

--------------------------------------------------------------------------

    Molecular point group: cs

    Geometry (in Angstrom), charge = 0, multiplicity = 1:

       Center              X                  Y                   Z               Mass
    ------------   -----------------  -----------------  -----------------  -----------------
         H            0.051916066221    -1.022712776937     0.000000000000     1.007825032230
         H           -0.875861711579     0.060620556363     0.000000000000     1.007825032230
         O            0.051916066221     0.060620556363     0.000000000000    15.994914619570

  Charge       = 0
  Multiplicity = 1
  Basis Set: 6-31G
    Blend: 6-31G
  Basis Set: (6-31G AUX)
    Blend: CC-PVDZ-JKFIT

    Orbital Energies [Eh]
    ---------------------

    Doubly Occupied:

       1Ap   -20.579867     2Ap    -1.353646     3Ap    -0.662674
       4Ap    -0.578055     1App   -0.506943

  @DF-RHF Final Energy:   -75.96030106381616

   => Energetics <=

    Nuclear Repulsion Energy =              8.8417446477448483
    One-Electron Energy =                -122.2417163973018859
    Two-Electron Energy =                  37.4396706857408716
    Total Energy =                        -75.9603010638161606

  Dipole Moment: [D]
     X:    -2.0341      Y:    -2.0100      Z:     0.0000     Total:     2.8597

*** Psi4 exiting successfully. Buy a developer a beer!
