                               Psi4 1.2.1 release

  ==> Input File <==

--------------------------------------------------------------------------
# density-fitted hartree fock energies and gradients with 6-31g
molecule h2o {
0 1
H 0.0000000000 0.0000000000 1.1000000000
H 0.0000000000 1.0806465139 -0.3933231648
O 0.0000000000 0.0000000000 0.0000000000
}

set basis 6-31g

gradient('mp2')
--------------------------------------------------------------------------

    Molecular point group: cs
  Charge       = 0
  Multiplicity = 1
  Basis Set: 6-31G
    Blend: 6-31G
  Basis Set: (6-31G AUX)
    Blend: CC-PVDZ-JKFIT

    Orbital Energies [Eh]
    ---------------------

    Doubly Occupied:

       1Ap   -20.587393     2Ap    -1.280242     3Ap    -0.633333
       4Ap    -0.525433     1App   -0.492387

  @DF-RHF Final Energy:   -75.94176859998313

   => Energetics <=

    Nuclear Repulsion Energy =              7.8168733383720994
    One-Electron Energy =                -120.4797046604472257
    Two-Electron Energy =                  36.7210627220919861
    Total Energy =                        -75.9417685999831349

  Dipole Moment: [D]
     X:    -2.1011      Y:    -1.4553      Z:     0.0000     Total:     2.5559

  Basis Set: (6-31G AUX)
    Blend: CC-PVDZ-RI
    Molecular point group: cs

    Geometry (in Angstrom), charge = 0, multiplicity = 1:

       Center              X                  Y                   Z               Mass
    ------------   -----------------  -----------------  -----------------  -----------------
         H            0.060470208828    -1.060456175772     0.000000000000     1.007825032070
         H           -1.020176305072     0.432866989028     0.000000000000     1.007825032070
         O            0.060470208828     0.039543824228     0.000000000000    15.994914619560

  Basis Set: 6-31G
    Blend: 6-31G
  Basis Set: (6-31G AUX)
    Blend: CC-PVDZ-JKFIT
  Basis Set: (6-31G AUX)
    Blend: CC-PVDZ-JKFIT
	 Reference Energy          =     -75.9417685999831349 [Eh]
	 Singles Energy            =      -0.0000000000000000 [Eh]
	 Same-Spin Energy          =      -0.0333758737881815 [Eh]
	 Opposite-Spin Energy      =      -0.1103393060518958 [Eh]
	 Correlation Energy        =      -0.1437151798400773 [Eh]
	 Total Energy              =     -76.0854837798232069 [Eh]

	 ================> DF-SCS-MP2 Energies <==================
	-----------------------------------------------------------
	 SCS Same-Spin Scale       =       0.3333333333333333 [-]
	 SCS Opposite-Spin Scale   =       1.2000000000000000 [-]
	 SCS Same-Spin Energy      =      -0.0111252912627272 [Eh]
	 SCS Opposite-Spin Energy  =      -0.1324071672622749 [Eh]
	 SCS Correlation Energy    =      -0.1435324585250021 [Eh]
	 SCS Total Energy          =     -76.0853010585081364 [Eh]
	-----------------------------------------------------------

  -Total Gradient:
     Atom            X                  Y                   Z
    ------   -----------------  -----------------  -----------------
       1        0.011288546092    -0.073777979253     0.000000000000
       2       -0.081160800771     0.041030828930    -0.000000000000
       3        0.069872254679     0.032747150323    -0.000000000000

*** Psi4 exiting successfully. Buy a developer a beer!
