                               Psi4 1.3.2 release

  ==> Input File <==

--------------------------------------------------------------------------
# density fitted hartree fock
molecule h2o {
0 1
H 0.0000000000 0.0000000000 0.9833333333
H 0.0000000000 0.8876089033 -0.3828771072
O 0.0000000000 0.0000000000 0.0000000000
}

set scf_type pk
set basis 6-31g
gradient('hf')

--------------------------------------------------------------------------

    Molecular point group: cs
  Charge       = 0
  Multiplicity = 1
  Basis Set: 6-31G
    Blend: 6-31G

    Orbital Energies [Eh]
    ---------------------

    Doubly Occupied:

       1Ap   -20.556775     2Ap    -1.337524     3Ap    -0.714081
       4Ap    -0.541134     1App   -0.495739

  @RHF Final Energy:   -75.98376991881703

   => Energetics <=

    Nuclear Repulsion Energy =              9.0093707660412825
    One-Electron Energy =                -122.6957744933046257
    Two-Electron Energy =                  37.7026338084463220
    Total Energy =                        -75.9837699188170177

  Dipole Moment: [D]
     X:    -2.0624      Y:    -1.3707      Z:     0.0000     Total:     2.4763

    Molecular point group: cs

    Geometry (in Angstrom), charge = 0, multiplicity = 1:

       Center              X                  Y                   Z               Mass
    ------------   -----------------  -----------------  -----------------  -----------------
         H            0.049668318971    -0.949733342070     0.000000000000     1.007825032230
         H           -0.837940584329     0.416477098430     0.000000000000     1.007825032230
         O            0.049668318971     0.033599991230     0.000000000000    15.994914619570

  Basis Set: 6-31G
    Blend: 6-31G

  -Total Gradient:
     Atom            X                  Y                   Z
    ------   -----------------  -----------------  -----------------
       1        0.004805737277    -0.034549542977     0.000000000000
       2       -0.015115006465     0.011843989978     0.000000000000
       3        0.010309269188     0.022705552999     0.000000000000

*** Psi4 exiting successfully. Buy a developer a beer!
