                               Psi4 1.3.2 release

  ==> Input File <==

--------------------------------------------------------------------------
# density fitted hartree fock
molecule h2o {
0 1
H 0.0000000000 0.0000000000 0.9000000000
H 0.0000000000 0.8191632536 -0.4113992485
O 0.0000000000 0.0000000000 0.0000000000
}

set scf_type pk
set basis 6-31g
gradient('hf')

--------------------------------------------------------------------------

    Molecular point group: cs
  Charge       = 0
  Multiplicity = 1
  Basis Set: 6-31G
    Blend: 6-31G

    Orbital Energies [Eh]
    ---------------------

    Doubly Occupied:

       1Ap   -20.541828     2Ap    -1.369951     3Ap    -0.760476
       4Ap    -0.544714     1App   -0.498940

  @RHF Final Energy:   -75.98109302415796

   => Energetics <=

    Nuclear Repulsion Energy =              9.6643105314223199
    One-Electron Energy =                -123.8589875763837682
    Two-Electron Energy =                  38.2135840208034878
    Total Energy =                        -75.9810930241579570

  Dipole Moment: [D]
     X:    -2.0326      Y:    -1.2352      Z:     0.0000     Total:     2.3785

    Molecular point group: cs

    Geometry (in Angstrom), charge = 0, multiplicity = 1:

       Center              X                  Y                   Z               Mass
    ------------   -----------------  -----------------  -----------------  -----------------
         H            0.045838275864    -0.872659154404     0.000000000000     1.007825032230
         H           -0.773324977736     0.438740094096     0.000000000000     1.007825032230
         O            0.045838275864     0.027340845596     0.000000000000    15.994914619570

  Basis Set: 6-31G
    Blend: 6-31G

  -Total Gradient:
     Atom            X                  Y                   Z
    ------   -----------------  -----------------  -----------------
       1        0.005239219981     0.062396431926     0.000000000000
       2        0.035421793291    -0.012033255745     0.000000000000
       3       -0.040661013272    -0.050363176180     0.000000000000

*** Psi4 exiting successfully. Buy a developer a beer!
