                               Psi4 1.3.2 release

  ==> Input File <==

--------------------------------------------------------------------------
# density fitted hartree fock
molecule h2o {
0 1
H 0.0000000000 0.0000000000 0.9500000000
H 0.0000000000 0.8263944962 -0.3564717894
O 0.0000000000 0.0000000000 0.0000000000
}

set scf_type pk
set basis 6-31g
gradient('hf')

--------------------------------------------------------------------------

    Molecular point group: cs
  Charge       = 0
  Multiplicity = 1
  Basis Set: 6-31G
    Blend: 6-31G

    Orbital Energies [Eh]
    ---------------------

    Doubly Occupied:

       1Ap   -20.547399     2Ap    -1.364832     3Ap    -0.744390
       4Ap    -0.548376     1App   -0.499216

  @RHF Final Energy:   -75.98244301420824

   => Energetics <=

    Nuclear Repulsion Energy =              9.5023374337799247
    One-Electron Energy =                -123.5611340338980568
    Two-Electron Energy =                  38.0763535859098852
    Total Energy =                        -75.9824430142082434

  Dipole Moment: [D]
     X:    -2.0286      Y:    -1.3825      Z:     0.0000     Total:     2.4549

    Molecular point group: cs

    Geometry (in Angstrom), charge = 0, multiplicity = 1:

       Center              X                  Y                   Z               Mass
    ------------   -----------------  -----------------  -----------------  -----------------
         H            0.046242917664    -0.916787682759     0.000000000000     1.007825032230
         H           -0.780151578536     0.389684106641     0.000000000000     1.007825032230
         O            0.046242917664     0.033212317241     0.000000000000    15.994914619570

  Basis Set: 6-31G
    Blend: 6-31G

  -Total Gradient:
     Atom            X                  Y                   Z
    ------   -----------------  -----------------  -----------------
       1        0.001036962361    -0.002599595815     0.000000000000
       2        0.060443423524    -0.024880685957     0.000000000000
       3       -0.061480385885     0.027480281771     0.000000000000

*** Psi4 exiting successfully. Buy a developer a beer!
