                               Psi4 1.3.2 release

  ==> Input File <==

--------------------------------------------------------------------------
# density fitted hartree fock
molecule h2o {
noreorient
nocom
0 1
H 0.0000000000 0.0000000000 0.9666666667
H 0.0000000000 0.9083695334 -0.3306194719
O 0.0000000000 0.0000000000 0.0000000000
}

set scf_type pk
set basis 6-31g
gradient('hf')

--------------------------------------------------------------------------

    Molecular point group: cs
  Charge       = 0
  Multiplicity = 1
  Basis Set: 6-31G
    Blend: 6-31G

    Orbital Energies [Eh]
    ---------------------

    Doubly Occupied:

       1Ap   -20.557976     2Ap    -1.345295     3Ap    -0.713927
       4Ap    -0.548680     1App   -0.498039

  @RHF Final Energy:   -75.98477898739806

   => Energetics <=

    Nuclear Repulsion Energy =              9.0929362929497142
    One-Electron Energy =                -122.8275974000654287
    Two-Electron Energy =                  37.7498821197176539
    Total Energy =                        -75.9847789873980588

  Dipole Moment: [D]
     X:     0.0000      Y:     2.0777      Z:     1.4548     Total:     2.5364

    Molecular point group: cs

    Geometry (in Angstrom), charge = 0, multiplicity = 1:

       Center              X                  Y                   Z               Mass
    ------------   -----------------  -----------------  -----------------  -----------------
         H            0.000000000000     0.000000000000     0.966666666700     1.007825032230
         H            0.000000000000     0.908369533400    -0.330619471900     1.007825032230
         O            0.000000000000     0.000000000000     0.000000000000    15.994914619570

  Basis Set: 6-31G
    Blend: 6-31G

  -Total Gradient:
     Atom            X                  Y                   Z
    ------   -----------------  -----------------  -----------------
       1        0.000000000000     0.001265342992     0.016711496333
       2        0.000000000000     0.016136442529    -0.004526634881
       3        0.000000000000    -0.017401785521    -0.012184861452

*** Psi4 exiting successfully. Buy a developer a beer!
