                               Psi4 1.3.1 release

  ==> Input File <==

--------------------------------------------------------------------------
# density fitted hartree fock
molecule h2o {
0 1
H 0.0000000000 0.0000000000 1.0055555556
H 0.0000000000 0.8500000000 0.0000000000
O 0.0000000000 0.0000000000 0.0000000000
}

set basis 6-31g
energy('hf')

--------------------------------------------------------------------------

    Molecular point group: cs

    Geometry (in Angstrom), charge = 0, multiplicity = 1:

       Center              X                  Y                   Z               Mass
    ------------   -----------------  -----------------  -----------------  -----------------
         H            0.047563821147    -0.949287244305     0.000000000000     1.007825032230
         H           -0.802436178853     0.056268311295     0.000000000000     1.007825032230
         O            0.047563821147     0.056268311295     0.000000000000    15.994914619570

  Charge       = 0
  Multiplicity = 1
  Basis Set: 6-31G
    Blend: 6-31G
  Basis Set: (6-31G AUX)
    Blend: CC-PVDZ-JKFIT

    Orbital Energies [Eh]
    ---------------------

    Doubly Occupied:

       1Ap   -20.563547     2Ap    -1.398260     3Ap    -0.698902
       4Ap    -0.591388     1App   -0.510093

  @DF-RHF Final Energy:   -75.95379406438968

   => Energetics <=

    Nuclear Repulsion Energy =              9.5924231963919055
    One-Electron Energy =                -123.5680623546391104
    Two-Electron Energy =                  38.0218450938575145
    Total Energy =                        -75.9537940643896832

  Dipole Moment: [D]
     X:    -1.9997      Y:    -2.0082      Z:     0.0000     Total:     2.8340

*** Psi4 exiting successfully. Buy a developer a beer!
