                               Psi4 1.3.2 release

  ==> Input File <==

--------------------------------------------------------------------------
# density fitted hartree fock
molecule h2o {
noreorient
nocom
0 1
H 0.0000000000 0.0000000000 0.9333333333
H 0.0000000000 0.8863269777 -0.1562833599
O 0.0000000000 0.0000000000 0.0000000000
}

set scf_type pk
set basis 6-31g
gradient('hf')

--------------------------------------------------------------------------

    Molecular point group: cs
  Charge       = 0
  Multiplicity = 1
  Basis Set: 6-31G
    Blend: 6-31G

    Orbital Energies [Eh]
    ---------------------

    Doubly Occupied:

       1Ap   -20.555285     2Ap    -1.385368     3Ap    -0.724679
       4Ap    -0.575433     1App   -0.505884

  @RHF Final Energy:   -75.97724382196787

   => Energetics <=

    Nuclear Repulsion Energy =              9.6163537689679863
    One-Electron Energy =                -123.6938991940489814
    Two-Electron Energy =                  38.1003016031131310
    Total Energy =                        -75.9772438219678747

  Dipole Moment: [D]
     X:     0.0000      Y:     2.0503      Z:     1.7367     Total:     2.6870

    Molecular point group: cs

    Geometry (in Angstrom), charge = 0, multiplicity = 1:

       Center              X                  Y                   Z               Mass
    ------------   -----------------  -----------------  -----------------  -----------------
         H            0.000000000000     0.000000000000     0.933333333300     1.007825032230
         H            0.000000000000     0.886326977700    -0.156283359900     1.007825032230
         O            0.000000000000     0.000000000000     0.000000000000    15.994914619570

  Basis Set: 6-31G
    Blend: 6-31G

  -Total Gradient:
     Atom            X                  Y                   Z
    ------   -----------------  -----------------  -----------------
       1        0.000000000000     0.025535150825    -0.027613064339
       2        0.000000000000    -0.068967665876     0.039050268461
       3        0.000000000000     0.043432515051    -0.011437204122

*** Psi4 exiting successfully. Buy a developer a beer!
