                               Psi4 1.3.2 release

  ==> Input File <==

--------------------------------------------------------------------------
# density fitted hartree fock
molecule h2o {
noreorient
nocom
0 1
H 0.0000000000 0.0000000000 0.9666666667
H 0.0000000000 0.8263944962 -0.3564717894
O 0.0000000000 0.0000000000 0.0000000000
}

set scf_type pk
set basis 6-31g
gradient('hf')

--------------------------------------------------------------------------

    Molecular point group: cs
  Charge       = 0
  Multiplicity = 1
  Basis Set: 6-31G
    Blend: 6-31G

    Orbital Energies [Eh]
    ---------------------

    Doubly Occupied:

       1Ap   -20.548910     2Ap    -1.360696     3Ap    -0.739221
       4Ap    -0.547065     1App   -0.498626

  @RHF Final Energy:   -75.98207842783839

   => Energetics <=

    Nuclear Repulsion Energy =              9.4224095747929617
    One-Electron Energy =                -123.4199409820210747
    Two-Electron Energy =                  38.0154529793897211
    Total Energy =                        -75.9820784278383883

  Dipole Moment: [D]
     X:     0.0000      Y:     2.0251      Z:     1.3951     Total:     2.4591

    Molecular point group: cs

    Geometry (in Angstrom), charge = 0, multiplicity = 1:

       Center              X                  Y                   Z               Mass
    ------------   -----------------  -----------------  -----------------  -----------------
         H            0.000000000000     0.000000000000     0.966666666700     1.007825032230
         H            0.000000000000     0.826394496200    -0.356471789400     1.007825032230
         O            0.000000000000     0.000000000000     0.000000000000    15.994914619570

  Basis Set: 6-31G
    Blend: 6-31G

  -Total Gradient:
     Atom            X                  Y                   Z
    ------   -----------------  -----------------  -----------------
       1        0.000000000000    -0.001731039415     0.020208134041
       2        0.000000000000    -0.061056022105     0.024312132483
       3        0.000000000000     0.062787061520    -0.044520266524

*** Psi4 exiting successfully. Buy a developer a beer!
