                               Psi4 1.3.2 release

  ==> Input File <==

--------------------------------------------------------------------------
# density fitted hartree fock
molecule h2o {
noreorient
nocom
0 1
H 0.0000000000 0.0000000000 0.9496306473
H 0.0000000000 0.8832771478 -0.3487403711
O 0.0000000000 0.0000000000 0.0000000000
}

set scf_type pk
set basis 6-31g
set e_convergence 10
gradient('hf')

--------------------------------------------------------------------------

    Molecular point group: cs
  Charge       = 0
  Multiplicity = 1
  Basis Set: 6-31G
    Blend: 6-31G

    Orbital Energies [Eh]
    ---------------------

    Doubly Occupied:

       1Ap   -20.553485     2Ap    -1.352531     3Ap    -0.726378
       4Ap    -0.548236     1App   -0.498299

  @RHF Final Energy:   -75.98535917638154

   => Energetics <=

    Nuclear Repulsion Energy =              9.2529087951244993
    One-Electron Energy =                -123.1186782596169849
    Two-Electron Energy =                  37.8804102881109515
    Total Energy =                        -75.9853591763815359

  Dipole Moment: [D]
     X:     0.0000      Y:     2.0675      Z:     1.4065     Total:     2.5006

    Molecular point group: cs

    Geometry (in Angstrom), charge = 0, multiplicity = 1:

       Center              X                  Y                   Z               Mass
    ------------   -----------------  -----------------  -----------------  -----------------
         H            0.000000000000     0.000000000000     0.949630647300     1.007825032230
         H            0.000000000000     0.883277147800    -0.348740371100     1.007825032230
         O            0.000000000000     0.000000000000     0.000000000000    15.994914619570

  Basis Set: 6-31G
    Blend: 6-31G

  -Total Gradient:
     Atom            X                  Y                   Z
    ------   -----------------  -----------------  -----------------
       1        0.000000000000    -0.000000001096     0.000000007731
       2        0.000000000000     0.000000006771    -0.000000003852
       3        0.000000000000    -0.000000005675    -0.000000003879

*** Psi4 exiting successfully. Buy a developer a beer!
