                               Psi4 1.3.2 release

  ==> Input File <==

--------------------------------------------------------------------------
# density fitted hartree fock
molecule h2o {
noreorient
nocom
0 1
H 0.0000000000 0.0000000000 0.9666666667
H 0.0000000000 0.9519808279 -0.1678599051
O 0.0000000000 0.0000000000 0.0000000000
}

set scf_type pk
set basis 6-31g
gradient('hf')

--------------------------------------------------------------------------

    Molecular point group: cs
  Charge       = 0
  Multiplicity = 1
  Basis Set: 6-31G
    Blend: 6-31G

    Orbital Energies [Eh]
    ---------------------

    Doubly Occupied:

       1Ap   -20.565580     2Ap    -1.356500     3Ap    -0.696895
       4Ap    -0.568029     1App   -0.503102

  @RHF Final Energy:   -75.98146996206877

   => Energetics <=

    Nuclear Repulsion Energy =              9.1161013082882789
    One-Electron Energy =                -122.8149308855689696
    Two-Electron Energy =                  37.7173596152119046
    Total Energy =                        -75.9814699620687861

  Dipole Moment: [D]
     X:     0.0000      Y:     2.0746      Z:     1.7408     Total:     2.7082

    Molecular point group: cs

    Geometry (in Angstrom), charge = 0, multiplicity = 1:

       Center              X                  Y                   Z               Mass
    ------------   -----------------  -----------------  -----------------  -----------------
         H            0.000000000000     0.000000000000     0.966666666700     1.007825032230
         H            0.000000000000     0.951980827900    -0.167859905100     1.007825032230
         O            0.000000000000     0.000000000000     0.000000000000    15.994914619570

  Basis Set: 6-31G
    Blend: 6-31G

  -Total Gradient:
     Atom            X                  Y                   Z
    ------   -----------------  -----------------  -----------------
       1        0.000000000000     0.019973525235     0.009514706095
       2        0.000000000000     0.012838522549     0.018017871139
       3        0.000000000000    -0.032812047784    -0.027532577235

*** Psi4 exiting successfully. Buy a developer a beer!
