                               Psi4 1.3.2 release

  ==> Input File <==

--------------------------------------------------------------------------
# density fitted hartree fock
molecule h2o {
0 1
H 0.0000000000 0.0000000000 0.9333333333
H 0.0000000000 0.9519808279 -0.1678599051
O 0.0000000000 0.0000000000 0.0000000000
}

set scf_type pk
set basis 6-31g
gradient('hf')

--------------------------------------------------------------------------

    Molecular point group: cs
  Charge       = 0
  Multiplicity = 1
  Basis Set: 6-31G
    Blend: 6-31G

    Orbital Energies [Eh]
    ---------------------

    Doubly Occupied:

       1Ap   -20.562141     2Ap    -1.365897     3Ap    -0.705993
       4Ap    -0.570450     1App   -0.503966

  @RHF Final Energy:   -75.98093889292559

   => Energetics <=

    Nuclear Repulsion Energy =              9.2787375053965135
    One-Electron Energy =                -123.1024614983089123
    Two-Electron Energy =                  37.8427850999868056
    Total Energy =                        -75.9809388929255931

  Dipole Moment: [D]
     X:    -2.0763      Y:    -1.7286      Z:     0.0000     Total:     2.7017

    Molecular point group: cs

    Geometry (in Angstrom), charge = 0, multiplicity = 1:

       Center              X                  Y                   Z               Mass
    ------------   -----------------  -----------------  -----------------  -----------------
         H            0.053270406864    -0.890499402439     0.000000000000     1.007825032230
         H           -0.898710421036     0.210693835961     0.000000000000     1.007825032230
         O            0.053270406864     0.042833930861     0.000000000000    15.994914619570

  Basis Set: 6-31G
    Blend: 6-31G

  -Total Gradient:
     Atom            X                  Y                   Z
    ------   -----------------  -----------------  -----------------
       1       -0.022253990530     0.027817549569     0.000000000000
       2       -0.013182876014    -0.019493579730     0.000000000000
       3        0.035436866544    -0.008323969840     0.000000000000

*** Psi4 exiting successfully. Buy a developer a beer!
