                               Psi4 1.3.2 release

  ==> Input File <==

--------------------------------------------------------------------------
# density fitted hartree fock
molecule h2o {
0 1
H 0.0000000000 0.0000000000 0.9166666667
H 0.0000000000 0.7794228634 -0.4500000000
O 0.0000000000 0.0000000000 0.0000000000
}

set scf_type pk
set basis 6-31g
gradient('hf')

--------------------------------------------------------------------------

    Molecular point group: cs
  Charge       = 0
  Multiplicity = 1
  Basis Set: 6-31G
    Blend: 6-31G

    Orbital Energies [Eh]
    ---------------------

    Doubly Occupied:

       1Ap   -20.539249     2Ap    -1.366125     3Ap    -0.765626
       4Ap    -0.538617     1App   -0.497356

  @RHF Final Energy:   -75.98031487150588

   => Energetics <=

    Nuclear Repulsion Energy =              9.6584195080112956
    One-Electron Energy =                -123.8635224697285651
    Two-Electron Energy =                  38.2247880902113835
    Total Energy =                        -75.9803148715058967

  Dipole Moment: [D]
     X:    -1.9891      Y:    -1.1688      Z:     0.0000     Total:     2.3071

    Molecular point group: cs

    Geometry (in Angstrom), charge = 0, multiplicity = 1:

       Center              X                  Y                   Z               Mass
    ------------   -----------------  -----------------  -----------------  -----------------
         H            0.043614505498    -0.890553196264     0.000000000000     1.007825032230
         H           -0.735808357902     0.476113470436     0.000000000000     1.007825032230
         O            0.043614505498     0.026113470436     0.000000000000    15.994914619570

  Basis Set: 6-31G
    Blend: 6-31G

  -Total Gradient:
     Atom            X                  Y                   Z
    ------   -----------------  -----------------  -----------------
       1        0.010212075102     0.034789504025     0.000000000000
       2        0.057333864301    -0.021091465305     0.000000000000
       3       -0.067545939403    -0.013698038720     0.000000000000

*** Psi4 exiting successfully. Buy a developer a beer!
