                               Psi4 1.3.2 release

  ==> Input File <==

--------------------------------------------------------------------------
# density fitted hartree fock
molecule h2o {
0 1
H 0.0000000000 0.0000000000 1.0000000000
H 0.0000000000 0.8371578903 -0.4833333333
O 0.0000000000 0.0000000000 0.0000000000
}

set scf_type pk
set basis 6-31g
gradient('hf')

--------------------------------------------------------------------------

    Molecular point group: cs
  Charge       = 0
  Multiplicity = 1
  Basis Set: 6-31G
    Blend: 6-31G

    Orbital Energies [Eh]
    ---------------------

    Doubly Occupied:

       1Ap   -20.552317     2Ap    -1.326537     3Ap    -0.717953
       4Ap    -0.527518     1App   -0.491366

  @RHF Final Energy:   -75.98023030626332

   => Energetics <=

    Nuclear Repulsion Energy =              8.9234993365810915
    One-Electron Energy =                -122.5760759251172090
    Two-Electron Energy =                  37.6723462822728052
    Total Energy =                        -75.9802303062633086

  Dipole Moment: [D]
     X:    -2.0135      Y:    -1.1984      Z:     0.0000     Total:     2.3432

    Molecular point group: cs

    Geometry (in Angstrom), charge = 0, multiplicity = 1:

       Center              X                  Y                   Z               Mass
    ------------   -----------------  -----------------  -----------------  -----------------
         H            0.046845209608    -0.971088657732     0.000000000000     1.007825032230
         H           -0.790312680692     0.512244675568     0.000000000000     1.007825032230
         O            0.046845209608     0.028911342268     0.000000000000    15.994914619570

  Basis Set: 6-31G
    Blend: 6-31G

  -Total Gradient:
     Atom            X                  Y                   Z
    ------   -----------------  -----------------  -----------------
       1        0.014642590089    -0.052474953405     0.000000000000
       2       -0.011537897853     0.024152241542     0.000000000000
       3       -0.003104692236     0.028322711862     0.000000000000

*** Psi4 exiting successfully. Buy a developer a beer!
