                               Psi4 1.3.2 release

  ==> Input File <==

--------------------------------------------------------------------------
# density fitted hartree fock
molecule h2o {
0 1
H 0.0000000000 0.0000000000 1.0000000000
H 0.0000000000 0.9396926208 -0.3420201433
O 0.0000000000 0.0000000000 0.0000000000
}

set scf_type pk
set basis 6-31g
gradient('hf')

--------------------------------------------------------------------------

    Molecular point group: c2v
  Charge       = 0
  Multiplicity = 1
  Basis Set: 6-31G
    Blend: 6-31G

    Orbital Energies [Eh]
    ---------------------

    Doubly Occupied:

       1A1   -20.564346     2A1    -1.328899     1B2    -0.695152
       3A1    -0.543809     1B1    -0.496245

  @RHF Final Energy:   -75.98076905678923

   => Energetics <=

    Nuclear Repulsion Energy =              8.7898384165724650
    One-Electron Energy =                -122.2843115165422745
    Two-Electron Energy =                  37.5137040431805815
    Total Energy =                        -75.9807690567892280

  Dipole Moment: [D]
     X:    -0.0000      Y:     0.0000      Z:     2.5473     Total:     2.5473

    Molecular point group: c2v

    Geometry (in Angstrom), charge = 0, multiplicity = 1:

       Center              X                  Y                   Z               Mass
    ------------   -----------------  -----------------  -----------------  -----------------
         H            0.000000000000    -0.819152044283     0.509384702167     1.007825032230
         H           -0.000000000000     0.819152044283     0.509384702167     1.007825032230
         O           -0.000000000000     0.000000000000    -0.064191734197    15.994914619570

  Basis Set: 6-31G
    Blend: 6-31G

  -Total Gradient:
     Atom            X                  Y                   Z
    ------   -----------------  -----------------  -----------------
       1        0.000000000000    -0.038216819275     0.025234046171
       2       -0.000000000000     0.038216819275     0.025234046171
       3        0.000000000000     0.000000000000    -0.050468092343

*** Psi4 exiting successfully. Buy a developer a beer!
