                               Psi4 1.3.2 release

  ==> Input File <==

--------------------------------------------------------------------------
molecule h2o {
noreorient
nocom
0 1
H 0.00 1.00 0.00
H 0.00 0.00 1.00
O 0.00 0.00 0.00
}

set scf_type pk
set basis 6-31g
set rms_force_g_convergence 1e-8
optimize('hf')

--------------------------------------------------------------------------

    Molecular point group: cs
  Charge       = 0
  Multiplicity = 1
  Basis Set: 6-31G
    Blend: 6-31G
  @RHF Final Energy:   -75.96970096254879
    Total Energy =                        -75.9697009625487851
    Molecular point group: cs
  Basis Set: 6-31G
    Blend: 6-31G
  Basis Set: 6-31G
    Blend: 6-31G
  @RHF Final Energy:   -75.98473630635738
    Total Energy =                        -75.9847363063573766
  Basis Set: 6-31G
    Blend: 6-31G
  Basis Set: 6-31G
    Blend: 6-31G
  @RHF Final Energy:   -75.98529771454609
    Total Energy =                        -75.9852977145460784
  Basis Set: 6-31G
    Blend: 6-31G
  Basis Set: 6-31G
    Blend: 6-31G
  @RHF Final Energy:   -75.98535803444096
    Total Energy =                        -75.9853580344409494
  Basis Set: 6-31G
    Blend: 6-31G
  Basis Set: 6-31G
    Blend: 6-31G
  @RHF Final Energy:   -75.98535916882211
    Total Energy =                        -75.9853591688221144
  Basis Set: 6-31G
    Blend: 6-31G
  Basis Set: 6-31G
    Blend: 6-31G
  @RHF Final Energy:   -75.98535917634966
    Total Energy =                        -75.9853591763496610
  Basis Set: 6-31G
    Blend: 6-31G
  Basis Set: 6-31G
    Blend: 6-31G
  @RHF Final Energy:   -75.98535917638146
    Total Energy =                        -75.9853591763814649
  Basis Set: 6-31G
    Blend: 6-31G
  Charge       = 0
  Multiplicity = 1
  Basis Set: 6-31G
    Blend: 6-31G

    Orbital Energies [Eh]
    ---------------------

    Doubly Occupied:

       1Ap   -20.553485     2Ap    -1.352531     3Ap    -0.726378
       4Ap    -0.548236     1App   -0.498299

  @RHF Final Energy:   -75.98535917638172

   => Energetics <=

    Nuclear Repulsion Energy =              9.2529088488409847
    One-Electron Energy =                -123.1186782116304812
    Two-Electron Energy =                  37.8804101864077722
    Total Energy =                        -75.9853591763817207

  Dipole Moment: [D]
     X:     0.0000      Y:     1.7682      Z:     1.7682     Total:     2.5006

    Molecular point group: cs
  Basis Set: 6-31G
    Blend: 6-31G

  -Total Gradient:
     Atom            X                  Y                   Z
    ------   -----------------  -----------------  -----------------
       1        0.000000000000    -0.000000002503     0.000000005259
       2        0.000000000000     0.000000005259    -0.000000002503
       3        0.000000000000    -0.000000002756    -0.000000002756

  **** Optimization is complete! (in 8 steps) ****
    Final optimized geometry and variables:
    Molecular point group: cs

    Geometry (in Angstrom), charge = 0, multiplicity = 1:

    H            0.000000000000     1.014429300441    -0.095963798565
    H            0.000000000000    -0.095963798565     1.014429300441
    O            0.000000000000     0.081534498123     0.081534498123

*** Psi4 exiting successfully. Buy a developer a beer!
