                               Psi4 1.3.2 release

  ==> Input File <==

--------------------------------------------------------------------------
# density fitted hartree fock
molecule h2o {
noreorient
nocom
0 1
H 0.0000000000 0.0000000000 0.9500000000
H 0.0000000000 0.8416980980 -0.3630731189
O 0.0000000000 0.0000000000 0.0000000000
}

set scf_type pk
set basis 6-31g
gradient('hf')

--------------------------------------------------------------------------

    Molecular point group: cs
  Charge       = 0
  Multiplicity = 1
  Basis Set: 6-31G
    Blend: 6-31G

    Orbital Energies [Eh]
    ---------------------

    Doubly Occupied:

       1Ap   -20.548980     2Ap    -1.359734     3Ap    -0.739178
       4Ap    -0.547201     1App   -0.498559

  @RHF Final Energy:   -75.98410123271145

   => Energetics <=

    Nuclear Repulsion Energy =              9.4137876924916419
    One-Electron Energy =                -123.4084720917274893
    Two-Electron Energy =                  38.0105831665243983
    Total Energy =                        -75.9841012327114527

  Dipole Moment: [D]
     X:     0.0000      Y:     2.0397      Z:     1.3731     Total:     2.4588

    Molecular point group: cs

    Geometry (in Angstrom), charge = 0, multiplicity = 1:

       Center              X                  Y                   Z               Mass
    ------------   -----------------  -----------------  -----------------  -----------------
         H            0.000000000000     0.000000000000     0.950000000000     1.007825032230
         H            0.000000000000     0.841698098000    -0.363073118900     1.007825032230
         O            0.000000000000     0.000000000000     0.000000000000    15.994914619570

  Basis Set: 6-31G
    Blend: 6-31G

  -Total Gradient:
     Atom            X                  Y                   Z
    ------   -----------------  -----------------  -----------------
       1        0.000000000000    -0.001697532242     0.002263662015
       2        0.000000000000    -0.037811208589     0.014394209181
       3        0.000000000000     0.039508740831    -0.016657871196

*** Psi4 exiting successfully. Buy a developer a beer!
