                               Psi4 1.3.2 release

  ==> Input File <==

--------------------------------------------------------------------------
# density fitted hartree fock
molecule h2o {
noreorient
nocom
0 1
H 0.0000000000 0.0000000000 0.9521306472
H 0.0000000000 0.8788080305 -0.3464440861
O 0.0000000000 0.0000000000 0.0000000000
}

set scf_type pk
set basis 6-31g
set e_convergence 10
gradient('hf')

--------------------------------------------------------------------------

    Molecular point group: cs
  Charge       = 0
  Multiplicity = 1
  Basis Set: 6-31G
    Blend: 6-31G

    Orbital Energies [Eh]
    ---------------------

    Doubly Occupied:

       1Ap   -20.553271     2Ap    -1.353251     3Ap    -0.727082
       4Ap    -0.548473     1App   -0.498399

  @RHF Final Energy:   -75.98532521664922

   => Energetics <=

    Nuclear Repulsion Energy =              9.2653029479102571
    One-Electron Energy =                -123.1403060794870186
    Two-Electron Energy =                  37.8896779149275602
    Total Energy =                        -75.9853252166492013

  Dipole Moment: [D]
     X:     0.0000      Y:     2.0642      Z:     1.4114     Total:     2.5006

    Molecular point group: cs

    Geometry (in Angstrom), charge = 0, multiplicity = 1:

       Center              X                  Y                   Z               Mass
    ------------   -----------------  -----------------  -----------------  -----------------
         H            0.000000000000     0.000000000000     0.952130647200     1.007825032230
         H            0.000000000000     0.878808030500    -0.346444086100     1.007825032230
         O            0.000000000000     0.000000000000     0.000000000000    15.994914619570

  Basis Set: 6-31G
    Blend: 6-31G

  -Total Gradient:
     Atom            X                  Y                   Z
    ------   -----------------  -----------------  -----------------
       1        0.000000000000     0.000152078906     0.002849554615
       2        0.000000000000    -0.005318701754     0.002261508654
       3        0.000000000000     0.005166622848    -0.005111063269

*** Psi4 exiting successfully. Buy a developer a beer!
