                               Psi4 1.3.2 release

  ==> Input File <==

--------------------------------------------------------------------------
# density fitted hartree fock
molecule h2o {
noreorient
nocom
0 1
H 0.0000000000 0.0000000000 0.9500000000
H 0.0000000000 0.9083695334 -0.3306194719
O 0.0000000000 0.0000000000 0.0000000000
}

set scf_type pk
set basis 6-31g
gradient('hf')

--------------------------------------------------------------------------

    Molecular point group: cs
  Charge       = 0
  Multiplicity = 1
  Basis Set: 6-31G
    Blend: 6-31G

    Orbital Energies [Eh]
    ---------------------

    Doubly Occupied:

       1Ap   -20.556371     2Ap    -1.349707     3Ap    -0.718782
       4Ap    -0.549887     1App   -0.498546

  @RHF Final Energy:   -75.98503329952119

   => Energetics <=

    Nuclear Repulsion Energy =              9.1726671571775960
    One-Electron Energy =                -122.9688160819353300
    Two-Electron Energy =                  37.8111156252365390
    Total Energy =                        -75.9850332995211915

  Dipole Moment: [D]
     X:     0.0000      Y:     2.0811      Z:     1.4443     Total:     2.5331

    Molecular point group: cs

    Geometry (in Angstrom), charge = 0, multiplicity = 1:

       Center              X                  Y                   Z               Mass
    ------------   -----------------  -----------------  -----------------  -----------------
         H            0.000000000000     0.000000000000     0.950000000000     1.007825032230
         H            0.000000000000     0.908369533400    -0.330619471900     1.007825032230
         O            0.000000000000     0.000000000000     0.000000000000    15.994914619570

  Basis Set: 6-31G
    Blend: 6-31G

  -Total Gradient:
     Atom            X                  Y                   Z
    ------   -----------------  -----------------  -----------------
       1        0.000000000000     0.001960670434    -0.000905999287
       2        0.000000000000     0.016603120575    -0.003992514545
       3        0.000000000000    -0.018563791009     0.004898513833

*** Psi4 exiting successfully. Buy a developer a beer!
