                               Psi4 1.3.2 release

  ==> Input File <==

--------------------------------------------------------------------------
# density fitted hartree fock
molecule h2o {
0 1
H 0.0000000000 0.0000000000 1.0000000000
H 0.0000000000 0.8613849024 -0.3135184647
O 0.0000000000 0.0000000000 0.0000000000
}

set scf_type pk
set basis 6-31g
gradient('hf')

--------------------------------------------------------------------------

    Molecular point group: cs
  Charge       = 0
  Multiplicity = 1
  Basis Set: 6-31G
    Blend: 6-31G

    Orbital Energies [Eh]
    ---------------------

    Doubly Occupied:

       1Ap   -20.556216     2Ap    -1.351517     3Ap    -0.719028
       4Ap    -0.549545     1App   -0.498681

  @RHF Final Energy:   -75.98163427502453

   => Energetics <=

    Nuclear Repulsion Energy =              9.1885820972591645
    One-Electron Energy =                -122.9904582990807569
    Two-Electron Energy =                  37.8202419267970384
    Total Energy =                        -75.9816342750245468

  Dipole Moment: [D]
     X:    -2.0444      Y:    -1.4958      Z:     0.0000     Total:     2.5331

    Molecular point group: cs

    Geometry (in Angstrom), charge = 0, multiplicity = 1:

       Center              X                  Y                   Z               Mass
    ------------   -----------------  -----------------  -----------------  -----------------
         H            0.048200891102    -0.961586252981     0.000000000000     1.007825032230
         H           -0.813184011298     0.351932211719     0.000000000000     1.007825032230
         O            0.048200891102     0.038413747019     0.000000000000    15.994914619570

  Basis Set: 6-31G
    Blend: 6-31G

  -Total Gradient:
     Atom            X                  Y                   Z
    ------   -----------------  -----------------  -----------------
       1       -0.001741516571    -0.047053493613     0.000000000000
       2        0.040179534024    -0.016645919816     0.000000000000
       3       -0.038438017453     0.063699413429     0.000000000000

*** Psi4 exiting successfully. Buy a developer a beer!
