                               Psi4 1.2.1 release

  ==> Input File <==

--------------------------------------------------------------------------
# density-fitted hartree fock energies and gradients with 6-31g
molecule h2o {
0 1
H 0.0000000000 0.0000000000 1.0500000000
H 0.0000000000 1.0142221176 -0.2717599974
O 0.0000000000 0.0000000000 0.0000000000
}

set basis 6-31g

gradient('mp2')
--------------------------------------------------------------------------

    Molecular point group: c2v
  Charge       = 0
  Multiplicity = 1
  Basis Set: 6-31G
    Blend: 6-31G
  Basis Set: (6-31G AUX)
    Blend: CC-PVDZ-JKFIT

    Orbital Energies [Eh]
    ---------------------

    Doubly Occupied:

       1A1   -20.578206     2A1    -1.311994     1B2    -0.662202
       3A1    -0.545892     1B1    -0.497190

  @DF-RHF Final Energy:   -75.96896888845501

   => Energetics <=

    Nuclear Repulsion Energy =              8.3812780706462373
    One-Electron Energy =                -121.5095262650784633
    Two-Electron Energy =                  37.1592793059772220
    Total Energy =                        -75.9689688884550094

  Dipole Moment: [D]
     X:    -0.0000      Y:     0.0000      Z:     2.6451     Total:     2.6451

  Basis Set: (6-31G AUX)
    Blend: CC-PVDZ-RI
    Molecular point group: c2v

    Geometry (in Angstrom), charge = 0, multiplicity = 1:

       Center              X                  Y                   Z               Mass
    ------------   -----------------  -----------------  -----------------  -----------------
         H            0.000000000000    -0.833021007322     0.567663569357     1.007825032070
         H           -0.000000000000     0.833021007322     0.567663569357     1.007825032070
         O            0.000000000000     0.000000000000    -0.071535931088    15.994914619560

  Basis Set: 6-31G
    Blend: 6-31G
  Basis Set: (6-31G AUX)
    Blend: CC-PVDZ-JKFIT
  Basis Set: (6-31G AUX)
    Blend: CC-PVDZ-JKFIT
	 Reference Energy          =     -75.9689688884550094 [Eh]
	 Singles Energy            =      -0.0000000000000000 [Eh]
	 Same-Spin Energy          =      -0.0320257721927535 [Eh]
	 Opposite-Spin Energy      =      -0.1052685421479631 [Eh]
	 Correlation Energy        =      -0.1372943143407166 [Eh]
	 Total Energy              =     -76.1062632027957306 [Eh]

	 ================> DF-SCS-MP2 Energies <==================
	-----------------------------------------------------------
	 SCS Same-Spin Scale       =       0.3333333333333333 [-]
	 SCS Opposite-Spin Scale   =       1.2000000000000000 [-]
	 SCS Same-Spin Energy      =      -0.0106752573975845 [Eh]
	 SCS Opposite-Spin Energy  =      -0.1263222505775558 [Eh]
	 SCS Correlation Energy    =      -0.1369975079751402 [Eh]
	 SCS Total Energy          =     -76.1059663964301478 [Eh]
	-----------------------------------------------------------

  -Total Gradient:
     Atom            X                  Y                   Z
    ------   -----------------  -----------------  -----------------
       1        0.000000000000    -0.039751485968     0.031050568429
       2        0.000000000000     0.039751485967     0.031050568428
       3       -0.000000000000     0.000000000001    -0.062101136857

*** Psi4 exiting successfully. Buy a developer a beer!
