                               Psi4 1.3.2 release

  ==> Input File <==

--------------------------------------------------------------------------
# density fitted hartree fock
molecule h2o {
0 1
H 0.0000000000 0.0000000000 0.9666666667
H 0.0000000000 0.8876089033 -0.3828771072
O 0.0000000000 0.0000000000 0.0000000000
}

set scf_type pk
set basis 6-31g
gradient('hf')

--------------------------------------------------------------------------

    Molecular point group: c2v
  Charge       = 0
  Multiplicity = 1
  Basis Set: 6-31G
    Blend: 6-31G

    Orbital Energies [Eh]
    ---------------------

    Doubly Occupied:

       1A1   -20.555228     2A1    -1.341654     1B2    -0.718964
       3A1    -0.542362     1B1    -0.496250

  @RHF Final Energy:   -75.98461638692741

   => Energetics <=

    Nuclear Repulsion Energy =              9.0864030426967943
    One-Electron Energy =                -122.8331229152692288
    Two-Electron Energy =                  37.7621034856450279
    Total Energy =                        -75.9846163869274136

  Dipole Moment: [D]
     X:    -0.0000      Y:     0.0000      Z:     2.4732     Total:     2.4732

    Molecular point group: c2v

    Geometry (in Angstrom), charge = 0, multiplicity = 1:

       Center              X                  Y                   Z               Mass
    ------------   -----------------  -----------------  -----------------  -----------------
         H            0.000000000000    -0.807638217720     0.471743725400     1.007825032230
         H           -0.000000000000     0.807638217720     0.471743725400     1.007825032230
         O           -0.000000000000     0.000000000000    -0.059448286729    15.994914619570

  Basis Set: 6-31G
    Blend: 6-31G

  -Total Gradient:
     Atom            X                  Y                   Z
    ------   -----------------  -----------------  -----------------
       1        0.000000000000    -0.018124628359     0.006824438531
       2       -0.000000000000     0.018124628359     0.006824438531
       3       -0.000000000000     0.000000000000    -0.013648877061

*** Psi4 exiting successfully. Buy a developer a beer!
