                               Psi4 1.2.1 release

  ==> Input File <==

--------------------------------------------------------------------------
# density-fitted hartree fock energies and gradients with 6-31g
molecule h2o {
0 1
H 0.0000000000 0.0000000000 1.1500000000
H 0.0000000000 1.1591109915 -0.3105828541
O 0.0000000000 0.0000000000 0.0000000000
}

set basis 6-31g

gradient('mp2')
--------------------------------------------------------------------------

    Molecular point group: cs
  Charge       = 0
  Multiplicity = 1
  Basis Set: 6-31G
    Blend: 6-31G
  Basis Set: (6-31G AUX)
    Blend: CC-PVDZ-JKFIT

    Orbital Energies [Eh]
    ---------------------

    Doubly Occupied:

       1Ap   -20.600992     2Ap    -1.269750     3Ap    -0.607372
       4Ap    -0.526725     1App   -0.495337

  @DF-RHF Final Energy:   -75.92160815779782

   => Energetics <=

    Nuclear Repulsion Energy =              7.4928784289512214
    One-Electron Energy =                -119.8286213453496458
    Two-Electron Energy =                  36.4141347586006106
    Total Energy =                        -75.9216081577978201

  Dipole Moment: [D]
     X:    -2.0887      Y:    -1.6029      Z:     0.0000     Total:     2.6329

  Basis Set: (6-31G AUX)
    Blend: CC-PVDZ-RI
    Molecular point group: cs

    Geometry (in Angstrom), charge = 0, multiplicity = 1:

       Center              X                  Y                   Z               Mass
    ------------   -----------------  -----------------  -----------------  -----------------
         H            0.064860879861    -1.103028368247     0.000000000000     1.007825032070
         H           -1.094250111639     0.357554485853     0.000000000000     1.007825032070
         O            0.064860879861     0.046971631753     0.000000000000    15.994914619560

  Basis Set: 6-31G
    Blend: 6-31G
  Basis Set: (6-31G AUX)
    Blend: CC-PVDZ-JKFIT
  Basis Set: (6-31G AUX)
    Blend: CC-PVDZ-JKFIT
	 Reference Energy          =     -75.9216081577978201 [Eh]
	 Singles Energy            =      -0.0000000000000000 [Eh]
	 Same-Spin Energy          =      -0.0343942921093343 [Eh]
	 Opposite-Spin Energy      =      -0.1148016177260025 [Eh]
	 Correlation Energy        =      -0.1491959098353369 [Eh]
	 Total Energy              =     -76.0708040676331620 [Eh]

	 ================> DF-SCS-MP2 Energies <==================
	-----------------------------------------------------------
	 SCS Same-Spin Scale       =       0.3333333333333333 [-]
	 SCS Opposite-Spin Scale   =       1.2000000000000000 [-]
	 SCS Same-Spin Energy      =      -0.0114647640364448 [Eh]
	 SCS Opposite-Spin Energy  =      -0.1377619412712031 [Eh]
	 SCS Correlation Energy    =      -0.1492267053076478 [Eh]
	 SCS Total Energy          =     -76.0708348631054747 [Eh]
	-----------------------------------------------------------

  -Total Gradient:
     Atom            X                  Y                   Z
    ------   -----------------  -----------------  -----------------
       1        0.007193471263    -0.085107000453    -0.000000000000
       2       -0.091005449940     0.031521762852    -0.000000000000
       3        0.083811978677     0.053585237601     0.000000000000

*** Psi4 exiting successfully. Buy a developer a beer!
