                               Psi4 1.3.2 release

  ==> Input File <==

--------------------------------------------------------------------------
# density fitted hartree fock
molecule h2o {
noreorient
nocom
0 1
H 0.0000000000 0.0000000000 0.9166666667
H 0.0000000000 0.8781570530 -0.2629029633
O 0.0000000000 0.0000000000 0.0000000000
}

set scf_type pk
set basis 6-31g
gradient('hf')

--------------------------------------------------------------------------

    Molecular point group: cs
  Charge       = 0
  Multiplicity = 1
  Basis Set: 6-31G
    Blend: 6-31G

    Orbital Energies [Eh]
    ---------------------

    Doubly Occupied:

       1Ap   -20.550771     2Ap    -1.376781     3Ap    -0.737826
       4Ap    -0.562444     1App   -0.502907

  @RHF Final Energy:   -75.98180813789854

   => Energetics <=

    Nuclear Repulsion Energy =              9.5963952881225048
    One-Electron Energy =                -123.6949497673447809
    Two-Electron Energy =                  38.1167463413237328
    Total Energy =                        -75.9818081378985397

  Dipole Moment: [D]
     X:     0.0000      Y:     2.0654      Z:     1.5376     Total:     2.5749

    Molecular point group: cs

    Geometry (in Angstrom), charge = 0, multiplicity = 1:

       Center              X                  Y                   Z               Mass
    ------------   -----------------  -----------------  -----------------  -----------------
         H            0.000000000000     0.000000000000     0.916666666700     1.007825032230
         H            0.000000000000     0.878157053000    -0.262902963300     1.007825032230
         O            0.000000000000     0.000000000000     0.000000000000    15.994914619570

  Basis Set: 6-31G
    Blend: 6-31G

  -Total Gradient:
     Atom            X                  Y                   Z
    ------   -----------------  -----------------  -----------------
       1        0.000000000000     0.012123641378    -0.044584888138
       2        0.000000000000    -0.039234755700     0.024401411336
       3        0.000000000000     0.027111114323     0.020183476802

*** Psi4 exiting successfully. Buy a developer a beer!
