                               Psi4 1.3.2 release

  ==> Input File <==

--------------------------------------------------------------------------
# density fitted hartree fock
molecule h2o {
noreorient
nocom
0 1
H 0.0000000000 0.0000000000 0.9833333333
H 0.0000000000 0.9420230204 -0.2820231788
O 0.0000000000 0.0000000000 0.0000000000
}

set scf_type pk
set basis 6-31g
gradient('hf')

--------------------------------------------------------------------------

    Molecular point group: cs
  Charge       = 0
  Multiplicity = 1
  Basis Set: 6-31G
    Blend: 6-31G

    Orbital Energies [Eh]
    ---------------------

    Doubly Occupied:

       1Ap   -20.563887     2Ap    -1.340503     3Ap    -0.699285
       4Ap    -0.552611     1App   -0.498903

  @RHF Final Energy:   -75.98292785869427

   => Energetics <=

    Nuclear Repulsion Energy =              8.9457922184665808
    One-Electron Energy =                -122.5470612651021298
    Two-Electron Energy =                  37.6183411879412830
    Total Energy =                        -75.9829278586942678

  Dipole Moment: [D]
     X:     0.0000      Y:     2.0873      Z:     1.5539     Total:     2.6022

    Molecular point group: cs

    Geometry (in Angstrom), charge = 0, multiplicity = 1:

       Center              X                  Y                   Z               Mass
    ------------   -----------------  -----------------  -----------------  -----------------
         H            0.000000000000     0.000000000000     0.983333333300     1.007825032230
         H            0.000000000000     0.942023020400    -0.282023178800     1.007825032230
         O            0.000000000000     0.000000000000     0.000000000000    15.994914619570

  Basis Set: 6-31G
    Blend: 6-31G

  -Total Gradient:
     Atom            X                  Y                   Z
    ------   -----------------  -----------------  -----------------
       1        0.000000000000     0.005707933650     0.029907252637
       2        0.000000000000     0.030287888176    -0.003109356159
       3        0.000000000000    -0.035995821826    -0.026797896478

*** Psi4 exiting successfully. Buy a developer a beer!
