                               Psi4 1.2.1 release

  ==> Input File <==

--------------------------------------------------------------------------
# density-fitted hartree fock energies and gradients with 6-31g
molecule h2o {
0 1
H 0.0000000000 0.0000000000 0.9000000000
H 0.0000000000 0.8693332437 -0.2329371406
O 0.0000000000 0.0000000000 0.0000000000
}

set basis 6-31g

gradient('mp2')
--------------------------------------------------------------------------

    Molecular point group: c2v
  Charge       = 0
  Multiplicity = 1
  Basis Set: 6-31G
    Blend: 6-31G
  Basis Set: (6-31G AUX)
    Blend: CC-PVDZ-JKFIT

    Orbital Energies [Eh]
    ---------------------

    Doubly Occupied:

       1A1   -20.548617     2A1    -1.388966     1B2    -0.744749
       3A1    -0.568137     1B1    -0.504834

  @DF-RHF Final Energy:   -75.97744851181766

   => Energetics <=

    Nuclear Repulsion Energy =              9.7781577489086757
    One-Electron Energy =                -124.0006070998743724
    Two-Electron Energy =                  38.2450008391480338
    Total Energy =                        -75.9774485118176557

  Dipole Moment: [D]
     X:     0.0000      Y:     0.0000      Z:     2.5955     Total:     2.5955

  Basis Set: (6-31G AUX)
    Blend: CC-PVDZ-RI
    Molecular point group: c2v

    Geometry (in Angstrom), charge = 0, multiplicity = 1:

       Center              X                  Y                   Z               Mass
    ------------   -----------------  -----------------  -----------------  -----------------
         H            0.000000000000    -0.714018006277     0.486568773757     1.007825032070
         H           -0.000000000000     0.714018006277     0.486568773757     1.007825032070
         O            0.000000000000     0.000000000000    -0.061316512364    15.994914619560

  Basis Set: 6-31G
    Blend: 6-31G
  Basis Set: (6-31G AUX)
    Blend: CC-PVDZ-JKFIT
  Basis Set: (6-31G AUX)
    Blend: CC-PVDZ-JKFIT
	 Reference Energy          =     -75.9774485118176557 [Eh]
	 Singles Energy            =      -0.0000000000000000 [Eh]
	 Same-Spin Energy          =      -0.0289352328848629 [Eh]
	 Opposite-Spin Energy      =      -0.0945881869788972 [Eh]
	 Correlation Energy        =      -0.1235234198637601 [Eh]
	 Total Energy              =     -76.1009719316814142 [Eh]

	 ================> DF-SCS-MP2 Energies <==================
	-----------------------------------------------------------
	 SCS Same-Spin Scale       =       0.3333333333333333 [-]
	 SCS Opposite-Spin Scale   =       1.2000000000000000 [-]
	 SCS Same-Spin Energy      =      -0.0096450776282876 [Eh]
	 SCS Opposite-Spin Energy  =      -0.1135058243746767 [Eh]
	 SCS Correlation Energy    =      -0.1231509020029643 [Eh]
	 SCS Total Energy          =     -76.1005994138206177 [Eh]
	-----------------------------------------------------------

  -Total Gradient:
     Atom            X                  Y                   Z
    ------   -----------------  -----------------  -----------------
       1       -0.000000000000     0.084876126239    -0.044947321033
       2       -0.000000000000    -0.084876126259    -0.044947321048
       3        0.000000000000     0.000000000020     0.089894642081

*** Psi4 exiting successfully. Buy a developer a beer!
