                               Psi4 1.2.1 release

  ==> Input File <==

--------------------------------------------------------------------------
# density-fitted hartree fock energies and gradients with 6-31g
molecule h2o {
0 1
H 0.0000000000 0.0000000000 1.1500000000
H 0.0000000000 1.0806465139 -0.3933231648
O 0.0000000000 0.0000000000 0.0000000000
}

set basis 6-31g

gradient('mp2')
--------------------------------------------------------------------------

    Molecular point group: c2v
  Charge       = 0
  Multiplicity = 1
  Basis Set: 6-31G
    Blend: 6-31G
  Basis Set: (6-31G AUX)
    Blend: CC-PVDZ-JKFIT

    Orbital Energies [Eh]
    ---------------------

    Doubly Occupied:

       1A1   -20.591901     2A1    -1.272098     1B2    -0.622068
       3A1    -0.522062     1B1    -0.492058

  @DF-RHF Final Energy:   -75.93165689207189

   => Energetics <=

    Nuclear Repulsion Energy =              7.6433377235539206
    One-Electron Energy =                -120.1496149084862566
    Two-Electron Energy =                  36.5746202928604376
    Total Energy =                        -75.9316568920718851

  Dipole Moment: [D]
     X:     0.0000      Y:     0.0000      Z:     2.5518     Total:     2.5518

  Basis Set: (6-31G AUX)
    Blend: CC-PVDZ-RI
    Molecular point group: c2v

    Geometry (in Angstrom), charge = 0, multiplicity = 1:

       Center              X                  Y                   Z               Mass
    ------------   -----------------  -----------------  -----------------  -----------------
         H            0.000000000000    -0.942024850921     0.585792407494     1.007825032070
         H           -0.000000000000     0.942024850921     0.585792407494     1.007825032070
         O            0.000000000000     0.000000000000    -0.073820494315    15.994914619560

  Basis Set: 6-31G
    Blend: 6-31G
  Basis Set: (6-31G AUX)
    Blend: CC-PVDZ-JKFIT
  Basis Set: (6-31G AUX)
    Blend: CC-PVDZ-JKFIT
	 Reference Energy          =     -75.9316568920718851 [Eh]
	 Singles Energy            =      -0.0000000000000000 [Eh]
	 Same-Spin Energy          =      -0.0338394753038706 [Eh]
	 Opposite-Spin Energy      =      -0.1122523409659439 [Eh]
	 Correlation Energy        =      -0.1460918162698144 [Eh]
	 Total Energy              =     -76.0777487083417014 [Eh]

	 ================> DF-SCS-MP2 Energies <==================
	-----------------------------------------------------------
	 SCS Same-Spin Scale       =       0.3333333333333333 [-]
	 SCS Opposite-Spin Scale   =       1.2000000000000000 [-]
	 SCS Same-Spin Energy      =      -0.0112798251012902 [Eh]
	 SCS Opposite-Spin Energy  =      -0.1347028091591327 [Eh]
	 SCS Correlation Energy    =      -0.1459826342604228 [Eh]
	 SCS Total Energy          =     -76.0776395263323053 [Eh]
	-----------------------------------------------------------

  -Total Gradient:
     Atom            X                  Y                   Z
    ------   -----------------  -----------------  -----------------
       1       -0.000000000000    -0.079712080927     0.041101396204
       2        0.000000000000     0.079712080922     0.041101396201
       3       -0.000000000000     0.000000000005    -0.082202792405

*** Psi4 exiting successfully. Buy a developer a beer!
