                               Psi4 1.3.2 release

  ==> Input File <==

--------------------------------------------------------------------------
# density fitted hartree fock
molecule h2o {
noreorient
nocom
0 1
H 0.0000000000 0.0000000000 1.0000000000
H 0.0000000000 0.9083695334 -0.3306194719
O 0.0000000000 0.0000000000 0.0000000000
}

set scf_type pk
set basis 6-31g
gradient('hf')

--------------------------------------------------------------------------

    Molecular point group: cs
  Charge       = 0
  Multiplicity = 1
  Basis Set: 6-31G
    Blend: 6-31G

    Orbital Energies [Eh]
    ---------------------

    Doubly Occupied:

       1Ap   -20.561137     2Ap    -1.337192     3Ap    -0.704477
       4Ap    -0.546178     1App   -0.497121

  @RHF Final Energy:   -75.98275811867551

   => Energetics <=

    Nuclear Repulsion Energy =              8.9412698345458068
    One-Electron Energy =                -122.5558427991167321
    Two-Electron Energy =                  37.6318148458954198
    Total Energy =                        -75.9827581186755054

  Dipole Moment: [D]
     X:     0.0000      Y:     2.0713      Z:     1.4740     Total:     2.5422

    Molecular point group: cs

    Geometry (in Angstrom), charge = 0, multiplicity = 1:

       Center              X                  Y                   Z               Mass
    ------------   -----------------  -----------------  -----------------  -----------------
         H            0.000000000000     0.000000000000     1.000000000000     1.007825032230
         H            0.000000000000     0.908369533400    -0.330619471900     1.007825032230
         O            0.000000000000     0.000000000000     0.000000000000    15.994914619570

  Basis Set: 6-31G
    Blend: 6-31G

  -Total Gradient:
     Atom            X                  Y                   Z
    ------   -----------------  -----------------  -----------------
       1        0.000000000000    -0.000053244360     0.046282390310
       2        0.000000000000     0.015208004757    -0.005593874870
       3        0.000000000000    -0.015154760397    -0.040688515440

*** Psi4 exiting successfully. Buy a developer a beer!
