                               Psi4 1.3.1 release

  ==> Input File <==

--------------------------------------------------------------------------
# density fitted hartree fock
molecule h2o {
0 1
H 0.0000000000 0.0000000000 1.1611111111
H 0.0000000000 0.8500000000 0.0000000000
O 0.0000000000 0.0000000000 0.0000000000
}

set basis 6-31g
energy('hf')

--------------------------------------------------------------------------

    Molecular point group: cs

    Geometry (in Angstrom), charge = 0, multiplicity = 1:

       Center              X                  Y                   Z               Mass
    ------------   -----------------  -----------------  -----------------  -----------------
         H            0.047563821147    -1.096138309664     0.000000000000     1.007825032230
         H           -0.802436178853     0.064972801436     0.000000000000     1.007825032230
         O            0.047563821147     0.064972801436     0.000000000000    15.994914619570

  Charge       = 0
  Multiplicity = 1
  Basis Set: 6-31G
    Blend: 6-31G
  Basis Set: (6-31G AUX)
    Blend: CC-PVDZ-JKFIT

    Orbital Energies [Eh]
    ---------------------

    Doubly Occupied:

       1Ap   -20.578362     2Ap    -1.371041     3Ap    -0.672632
       4Ap    -0.569017     1App   -0.508653

  @DF-RHF Final Energy:   -75.93159696079522

   => Energetics <=

    Nuclear Repulsion Energy =              8.9942403337264807
    One-Electron Energy =                -122.4522611857204168
    Two-Electron Energy =                  37.5264238911987107
    Total Energy =                        -75.9315969607952184

  Dipole Moment: [D]
     X:    -2.0257      Y:    -1.9888      Z:     0.0000     Total:     2.8388

*** Psi4 exiting successfully. Buy a developer a beer!
