                               Psi4 1.3.2 release

  ==> Input File <==

--------------------------------------------------------------------------
# density fitted hartree fock
molecule h2o {
noreorient
nocom
0 1
H 0.0000000000 0.0000000000 0.9500000000
H 0.0000000000 0.9100900367 -0.2724630711
O 0.0000000000 0.0000000000 0.0000000000
}

set scf_type pk
set basis 6-31g
gradient('hf')

--------------------------------------------------------------------------

    Molecular point group: cs
  Charge       = 0
  Multiplicity = 1
  Basis Set: 6-31G
    Blend: 6-31G

    Orbital Energies [Eh]
    ---------------------

    Doubly Occupied:

       1Ap   -20.557340     2Ap    -1.357840     3Ap    -0.718084
       4Ap    -0.557527     1App   -0.500735

  @RHF Final Energy:   -75.98470443189140

   => Energetics <=

    Nuclear Repulsion Energy =              9.2596796642899779
    One-Electron Energy =                -123.1057178327353938
    Two-Electron Energy =                  37.8613337365540090
    Total Energy =                        -75.9847044318914016

  Dipole Moment: [D]
     X:     0.0000      Y:     2.0775      Z:     1.5466     Total:     2.5900

    Molecular point group: cs

    Geometry (in Angstrom), charge = 0, multiplicity = 1:

       Center              X                  Y                   Z               Mass
    ------------   -----------------  -----------------  -----------------  -----------------
         H            0.000000000000     0.000000000000     0.950000000000     1.007825032230
         H            0.000000000000     0.910090036700    -0.272463071100     1.007825032230
         O            0.000000000000     0.000000000000     0.000000000000    15.994914619570

  Basis Set: 6-31G
    Blend: 6-31G

  -Total Gradient:
     Atom            X                  Y                   Z
    ------   -----------------  -----------------  -----------------
       1        0.000000000000     0.008730000290    -0.002999885291
       2        0.000000000000    -0.000370066334     0.009223625517
       3        0.000000000000    -0.008359933955    -0.006223740226

*** Psi4 exiting successfully. Buy a developer a beer!
