                               Psi4 1.3.2 release

  ==> Input File <==

--------------------------------------------------------------------------
# density fitted hartree fock
molecule h2o {
noreorient
nocom
0 1
H 0.0000000000 0.0000000000 0.9833333333
H 0.0000000000 0.9029125051 -0.3894784366
O 0.0000000000 0.0000000000 0.0000000000
}

set scf_type pk
set basis 6-31g
gradient('hf')

--------------------------------------------------------------------------

    Molecular point group: cs
  Charge       = 0
  Multiplicity = 1
  Basis Set: 6-31G
    Blend: 6-31G

    Orbital Energies [Eh]
    ---------------------

    Doubly Occupied:

       1Ap   -20.558336     2Ap    -1.333343     3Ap    -0.709239
       4Ap    -0.539937     1App   -0.495240

  @RHF Final Energy:   -75.98293360237166

   => Energetics <=

    Nuclear Repulsion Energy =              8.9323962117572044
    One-Electron Energy =                -122.5584720919230364
    Two-Electron Energy =                  37.6431422777941691
    Total Energy =                        -75.9829336023716593

  Dipole Moment: [D]
     X:     0.0000      Y:     2.0714      Z:     1.3624     Total:     2.4793

    Molecular point group: cs

    Geometry (in Angstrom), charge = 0, multiplicity = 1:

       Center              X                  Y                   Z               Mass
    ------------   -----------------  -----------------  -----------------  -----------------
         H            0.000000000000     0.000000000000     0.983333333300     1.007825032230
         H            0.000000000000     0.902912505100    -0.389478436600     1.007825032230
         O            0.000000000000     0.000000000000     0.000000000000    15.994914619570

  Basis Set: 6-31G
    Blend: 6-31G

  -Total Gradient:
     Atom            X                  Y                   Z
    ------   -----------------  -----------------  -----------------
       1        0.000000000000    -0.005405934373     0.034227793042
       2        0.000000000000     0.029287329679    -0.018520752286
       3        0.000000000000    -0.023881395306    -0.015707040756

*** Psi4 exiting successfully. Buy a developer a beer!
