                               Psi4 1.3.2 release

  ==> Input File <==

--------------------------------------------------------------------------
# density fitted hartree fock
molecule h2o {
0 1
H 0.0000000000 0.0000000000 0.9666666667
H 0.0000000000 0.8082903769 -0.4666666667
O 0.0000000000 0.0000000000 0.0000000000
}

set scf_type pk
set basis 6-31g
gradient('hf')

--------------------------------------------------------------------------

    Molecular point group: cs
  Charge       = 0
  Multiplicity = 1
  Basis Set: 6-31G
    Blend: 6-31G

    Orbital Energies [Eh]
    ---------------------

    Doubly Occupied:

       1Ap   -20.546490     2Ap    -1.343321     3Ap    -0.738474
       4Ap    -0.532385     1App   -0.493803

  @RHF Final Energy:   -75.98295940423448

   => Energetics <=

    Nuclear Repulsion Energy =              9.2367864087643916
    One-Electron Energy =                -123.1305460967409715
    Two-Electron Energy =                  37.9108002837420912
    Total Energy =                        -75.9829594042344922

  Dipole Moment: [D]
     X:    -2.0002      Y:    -1.1931      Z:     0.0000     Total:     2.3290

    Molecular point group: cs

    Geometry (in Angstrom), charge = 0, multiplicity = 1:

       Center              X                  Y                   Z               Mass
    ------------   -----------------  -----------------  -----------------  -----------------
         H            0.045229857555    -0.938687948378     0.000000000000     1.007825032230
         H           -0.763060519345     0.494645385022     0.000000000000     1.007825032230
         O            0.045229857555     0.027978718322     0.000000000000    15.994914619570

  Basis Set: 6-31G
    Blend: 6-31G

  -Total Gradient:
     Atom            X                  Y                   Z
    ------   -----------------  -----------------  -----------------
       1        0.012829486194    -0.023889665569     0.000000000000
       2        0.019129445749     0.004298902193     0.000000000000
       3       -0.031958931943     0.019590763376     0.000000000000

*** Psi4 exiting successfully. Buy a developer a beer!
