                               Psi4 1.3.2 release

  ==> Input File <==

--------------------------------------------------------------------------
# density fitted hartree fock
molecule h2o {
0 1
H 0.0000000000 0.0000000000 0.9333333333
H 0.0000000000 0.7938566201 -0.4583333333
O 0.0000000000 0.0000000000 0.0000000000
}

set scf_type pk
set basis 6-31g
gradient('hf')

--------------------------------------------------------------------------

    Molecular point group: cs
  Charge       = 0
  Multiplicity = 1
  Basis Set: 6-31G
    Blend: 6-31G

    Orbital Energies [Eh]
    ---------------------

    Doubly Occupied:

       1Ap   -20.542148     2Ap    -1.356630     3Ap    -0.754563
       4Ap    -0.536119     1App   -0.495860

  @RHF Final Energy:   -75.98256433812701

   => Energetics <=

    Nuclear Repulsion Energy =              9.4843665800653820
    One-Electron Energy =                -123.5632215346671501
    Two-Electron Energy =                  38.0962906164747679
    Total Energy =                        -75.9825643381269913

  Dipole Moment: [D]
     X:    -1.9972      Y:    -1.1731      Z:     0.0000     Total:     2.3163

    Molecular point group: cs

    Geometry (in Angstrom), charge = 0, multiplicity = 1:

       Center              X                  Y                   Z               Mass
    ------------   -----------------  -----------------  -----------------  -----------------
         H            0.044422181524    -0.906753550894     0.000000000000     1.007825032230
         H           -0.749434438576     0.484913115706     0.000000000000     1.007825032230
         O            0.044422181524     0.026579782406     0.000000000000    15.994914619570

  Basis Set: 6-31G
    Blend: 6-31G

  -Total Gradient:
     Atom            X                  Y                   Z
    ------   -----------------  -----------------  -----------------
       1        0.011357458039     0.013033992365     0.000000000000
       2        0.036720408890    -0.007847630571     0.000000000000
       3       -0.048077866929    -0.005186361794     0.000000000000

*** Psi4 exiting successfully. Buy a developer a beer!
