                               Psi4 1.2.1 release

  ==> Input File <==

--------------------------------------------------------------------------
# density-fitted hartree fock energies and gradients with 6-31g
molecule h2o {
0 1
H 0.0000000000 0.0000000000 0.9500000000
H 0.0000000000 0.9355673654 -0.1649657688
O 0.0000000000 0.0000000000 0.0000000000
}

set basis 6-31g

gradient('mp2')
--------------------------------------------------------------------------

    Molecular point group: c2v
  Charge       = 0
  Multiplicity = 1
  Basis Set: 6-31G
    Blend: 6-31G
  Basis Set: (6-31G AUX)
    Blend: CC-PVDZ-JKFIT

    Orbital Energies [Eh]
    ---------------------

    Doubly Occupied:

       1A1   -20.562158     2A1    -1.365588     1B2    -0.705917
       3A1    -0.570529     1B1    -0.503933

  @DF-RHF Final Energy:   -75.98151278410811

   => Energetics <=

    Nuclear Repulsion Energy =              9.2760328736535484
    One-Electron Energy =                -123.0988413945730997
    Two-Electron Energy =                  37.8412957368114462
    Total Energy =                        -75.9815127841081051

  Dipole Moment: [D]
     X:    -0.0000      Y:     0.0000      Z:     2.7019     Total:     2.7019

  Basis Set: (6-31G AUX)
    Blend: CC-PVDZ-RI
    Molecular point group: c2v

    Geometry (in Angstrom), charge = 0, multiplicity = 1:

       Center              X                  Y                   Z               Mass
    ------------   -----------------  -----------------  -----------------  -----------------
         H            0.000000000000    -0.727742220982     0.542307610025     1.007825032070
         H           -0.000000000000     0.727742220982     0.542307610025     1.007825032070
         O           -0.000000000000     0.000000000000    -0.068340619186    15.994914619560

  Basis Set: 6-31G
    Blend: 6-31G
  Basis Set: (6-31G AUX)
    Blend: CC-PVDZ-JKFIT
  Basis Set: (6-31G AUX)
    Blend: CC-PVDZ-JKFIT
	 Reference Energy          =     -75.9815127841081051 [Eh]
	 Singles Energy            =      -0.0000000000000000 [Eh]
	 Same-Spin Energy          =      -0.0299839107521280 [Eh]
	 Opposite-Spin Energy      =      -0.0984538048189362 [Eh]
	 Correlation Energy        =      -0.1284377155710642 [Eh]
	 Total Energy              =     -76.1099504996791723 [Eh]

	 ================> DF-SCS-MP2 Energies <==================
	-----------------------------------------------------------
	 SCS Same-Spin Scale       =       0.3333333333333333 [-]
	 SCS Opposite-Spin Scale   =       1.2000000000000000 [-]
	 SCS Same-Spin Energy      =      -0.0099946369173760 [Eh]
	 SCS Opposite-Spin Energy  =      -0.1181445657827234 [Eh]
	 SCS Correlation Energy    =      -0.1281392027000994 [Eh]
	 SCS Total Energy          =     -76.1096519868082027 [Eh]
	-----------------------------------------------------------

  -Total Gradient:
     Atom            X                  Y                   Z
    ------   -----------------  -----------------  -----------------
       1       -0.000000000000     0.037545744673    -0.006199025081
       2        0.000000000000    -0.037545744669    -0.006199025078
       3       -0.000000000000    -0.000000000004     0.012398050159

*** Psi4 exiting successfully. Buy a developer a beer!
