                               Psi4 1.3.2 release

  ==> Input File <==

--------------------------------------------------------------------------
# density fitted hartree fock
molecule h2o {
noreorient
nocom
0 1
H 0.0000000000 0.0000000000 0.9666666667
H 0.0000000000 0.8770464461 -0.3192188004
O 0.0000000000 0.0000000000 0.0000000000
}

set scf_type pk
set basis 6-31g
gradient('hf')

--------------------------------------------------------------------------

    Molecular point group: cs
  Charge       = 0
  Multiplicity = 1
  Basis Set: 6-31G
    Blend: 6-31G

    Orbital Energies [Eh]
    ---------------------

    Doubly Occupied:

       1Ap   -20.554752     2Ap    -1.354373     3Ap    -0.723712
       4Ap    -0.551069     1App   -0.499087

  @RHF Final Energy:   -75.98469906210399

   => Energetics <=

    Nuclear Repulsion Energy =              9.2551798231624929
    One-Electron Energy =                -123.1137707420510594
    Two-Electron Energy =                  37.8738918567845815
    Total Energy =                        -75.9846990621039851

  Dipole Moment: [D]
     X:     0.0000      Y:     2.0598      Z:     1.4686     Total:     2.5297

    Molecular point group: cs

    Geometry (in Angstrom), charge = 0, multiplicity = 1:

       Center              X                  Y                   Z               Mass
    ------------   -----------------  -----------------  -----------------  -----------------
         H            0.000000000000     0.000000000000     0.966666666700     1.007825032230
         H            0.000000000000     0.877046446100    -0.319218800400     1.007825032230
         O            0.000000000000     0.000000000000     0.000000000000    15.994914619570

  Basis Set: 6-31G
    Blend: 6-31G

  -Total Gradient:
     Atom            X                  Y                   Z
    ------   -----------------  -----------------  -----------------
       1        0.000000000000     0.002587244687     0.017225764662
       2        0.000000000000    -0.018536446642     0.009598335839
       3        0.000000000000     0.015949201955    -0.026824100501

*** Psi4 exiting successfully. Buy a developer a beer!
