                               Psi4 1.3.2 release

  ==> Input File <==

--------------------------------------------------------------------------
# density fitted hartree fock
molecule h2o {
0 1
H 0.0000000000 0.0000000000 0.9833333333
H 0.0000000000 0.8371578903 -0.4833333333
O 0.0000000000 0.0000000000 0.0000000000
}

set scf_type pk
set basis 6-31g
gradient('hf')

--------------------------------------------------------------------------

    Molecular point group: cs
  Charge       = 0
  Multiplicity = 1
  Basis Set: 6-31G
    Blend: 6-31G

    Orbital Energies [Eh]
    ---------------------

    Doubly Occupied:

       1Ap   -20.550886     2Ap    -1.330382     3Ap    -0.722966
       4Ap    -0.528759     1App   -0.491928

  @RHF Final Energy:   -75.98166907389835

   => Energetics <=

    Nuclear Repulsion Energy =              8.9979187849670055
    One-Electron Energy =                -122.7093350533446880
    Two-Electron Energy =                  37.7297471944793443
    Total Energy =                        -75.9816690738983453

  Dipole Moment: [D]
     X:    -2.0183      Y:    -1.1836      Z:     0.0000     Total:     2.3398

    Molecular point group: cs

    Geometry (in Angstrom), charge = 0, multiplicity = 1:

       Center              X                  Y                   Z               Mass
    ------------   -----------------  -----------------  -----------------  -----------------
         H            0.046845209608    -0.955354614978     0.000000000000     1.007825032230
         H           -0.790312680692     0.511312051622     0.000000000000     1.007825032230
         O            0.046845209608     0.027978718322     0.000000000000    15.994914619570

  Basis Set: 6-31G
    Blend: 6-31G

  -Total Gradient:
     Atom            X                  Y                   Z
    ------   -----------------  -----------------  -----------------
       1        0.014327006670    -0.038609565077     0.000000000000
       2       -0.012217501828     0.023882410742     0.000000000000
       3       -0.002109504842     0.014727154335     0.000000000000

*** Psi4 exiting successfully. Buy a developer a beer!
