                               Psi4 1.3.2 release

  ==> Input File <==

--------------------------------------------------------------------------
# density fitted hartree fock
molecule h2o {
noreorient
nocom
0 1
H 0.0000000000 0.0000000000 0.9521306472
H 0.0000000000 0.8880195334 -0.3503440896
O 0.0000000000 0.0000000000 0.0000000000
}

set scf_type pk
set basis 6-31g
set e_convergence 10
gradient('hf')

--------------------------------------------------------------------------

    Molecular point group: cs
  Charge       = 0
  Multiplicity = 1
  Basis Set: 6-31G
    Blend: 6-31G

    Orbital Energies [Eh]
    ---------------------

    Doubly Occupied:

       1Ap   -20.554208     2Ap    -1.350549     3Ap    -0.724115
       4Ap    -0.547714     1App   -0.498061

  @RHF Final Energy:   -75.98532691632046

   => Energetics <=

    Nuclear Repulsion Energy =              9.2165586993946924
    One-Electron Energy =                -123.0544769483818186
    Two-Electron Energy =                  37.8525913326666696
    Total Energy =                        -75.9853269163204459

  Dipole Moment: [D]
     X:     0.0000      Y:     2.0698      Z:     1.4064     Total:     2.5024

    Molecular point group: cs

    Geometry (in Angstrom), charge = 0, multiplicity = 1:

       Center              X                  Y                   Z               Mass
    ------------   -----------------  -----------------  -----------------  -----------------
         H            0.000000000000     0.000000000000     0.952130647200     1.007825032230
         H            0.000000000000     0.888019533400    -0.350344089600     1.007825032230
         O            0.000000000000     0.000000000000     0.000000000000    15.994914619570

  Basis Set: 6-31G
    Blend: 6-31G

  -Total Gradient:
     Atom            X                  Y                   Z
    ------   -----------------  -----------------  -----------------
       1        0.000000000000    -0.000279025703     0.002685555406
       2        0.000000000000     0.004980129671    -0.002263945689
       3        0.000000000000    -0.004701103968    -0.000421609717

*** Psi4 exiting successfully. Buy a developer a beer!
