                               Psi4 1.3.2 release

  ==> Input File <==

--------------------------------------------------------------------------
# density fitted hartree fock
molecule h2o {
noreorient
nocom
0 1
H 0.0000000000 0.0000000000 0.9666666667
H 0.0000000000 0.9243926271 -0.2190850772
O 0.0000000000 0.0000000000 0.0000000000
}

set scf_type pk
set basis 6-31g
gradient('hf')

--------------------------------------------------------------------------

    Molecular point group: cs
  Charge       = 0
  Multiplicity = 1
  Basis Set: 6-31G
    Blend: 6-31G

    Orbital Energies [Eh]
    ---------------------

    Doubly Occupied:

       1Ap   -20.561474     2Ap    -1.357217     3Ap    -0.707514
       4Ap    -0.562741     1App   -0.501908

  @RHF Final Energy:   -75.98334921102234

   => Energetics <=

    Nuclear Repulsion Energy =              9.1875905651504937
    One-Electron Energy =                -122.9601713468437936
    Two-Electron Energy =                  37.7892315706709638
    Total Energy =                        -75.9833492110223432

  Dipole Moment: [D]
     X:     0.0000      Y:     2.0749      Z:     1.6493     Total:     2.6506

    Molecular point group: cs

    Geometry (in Angstrom), charge = 0, multiplicity = 1:

       Center              X                  Y                   Z               Mass
    ------------   -----------------  -----------------  -----------------  -----------------
         H            0.000000000000     0.000000000000     0.966666666700     1.007825032230
         H            0.000000000000     0.924392627100    -0.219085077200     1.007825032230
         O            0.000000000000     0.000000000000     0.000000000000    15.994914619570

  Basis Set: 6-31G
    Blend: 6-31G

  -Total Gradient:
     Atom            X                  Y                   Z
    ------   -----------------  -----------------  -----------------
       1        0.000000000000     0.014149464626     0.012142236363
       2        0.000000000000    -0.002103444615     0.015295069648
       3        0.000000000000    -0.012046020010    -0.027437306012

*** Psi4 exiting successfully. Buy a developer a beer!
