                               Psi4 1.3.2 release

  ==> Input File <==

--------------------------------------------------------------------------
# density fitted hartree fock
molecule h2o {
0 1
H 0.0000000000 0.0000000000 0.9333333333
H 0.0000000000 0.9420230204 -0.2820231788
O 0.0000000000 0.0000000000 0.0000000000
}

set scf_type pk
set basis 6-31g
gradient('hf')

--------------------------------------------------------------------------

    Molecular point group: cs
  Charge       = 0
  Multiplicity = 1
  Basis Set: 6-31G
    Blend: 6-31G

    Orbital Energies [Eh]
    ---------------------

    Doubly Occupied:

       1Ap   -20.558926     2Ap    -1.354038     3Ap    -0.713414
       4Ap    -0.556152     1App   -0.500299

  @RHF Final Energy:   -75.98339263813220

   => Energetics <=

    Nuclear Repulsion Energy =              9.1851123597696631
    One-Electron Energy =                -122.9713544936014955
    Two-Electron Energy =                  37.8028494956996397
    Total Energy =                        -75.9833926381321874

  Dipole Moment: [D]
     X:    -2.0954      Y:    -1.5277      Z:     0.0000     Total:     2.5932

    Molecular point group: cs

    Geometry (in Angstrom), charge = 0, multiplicity = 1:

       Center              X                  Y                   Z               Mass
    ------------   -----------------  -----------------  -----------------  -----------------
         H            0.052713193481    -0.896887686594     0.000000000000     1.007825032230
         H           -0.889309826919     0.318468825506     0.000000000000     1.007825032230
         O            0.052713193481     0.036445646706     0.000000000000    15.994914619570

  Basis Set: 6-31G
    Blend: 6-31G

  -Total Gradient:
     Atom            X                  Y                   Z
    ------   -----------------  -----------------  -----------------
       1       -0.008098614315     0.023162924282     0.000000000000
       2       -0.031385839291     0.001372396083     0.000000000000
       3        0.039484453605    -0.024535320365     0.000000000000

*** Psi4 exiting successfully. Buy a developer a beer!
