                               Psi4 1.3.2 release

  ==> Input File <==

--------------------------------------------------------------------------
# density fitted hartree fock
molecule h2o {
noreorient
nocom
0 1
H 0.0000000000 0.0000000000 1.0000000000
H 0.0000000000 0.8638448856 -0.4338392075
O 0.0000000000 0.0000000000 0.0000000000
}

set scf_type pk
set basis 6-31g
gradient('hf')

--------------------------------------------------------------------------

    Molecular point group: cs
  Charge       = 0
  Multiplicity = 1
  Basis Set: 6-31G
    Blend: 6-31G

    Orbital Energies [Eh]
    ---------------------

    Doubly Occupied:

       1Ap   -20.555363     2Ap    -1.330076     3Ap    -0.713779
       4Ap    -0.533656     1App   -0.493342

  @RHF Final Energy:   -75.98160047988003

   => Energetics <=

    Nuclear Repulsion Energy =              8.9289393477041408
    One-Electron Energy =                -122.5686476441140087
    Two-Electron Energy =                  37.6581078165298280
    Total Energy =                        -75.9816004798800293

  Dipole Moment: [D]
     X:     0.0000      Y:     2.0394      Z:     1.2898     Total:     2.4131

    Molecular point group: cs

    Geometry (in Angstrom), charge = 0, multiplicity = 1:

       Center              X                  Y                   Z               Mass
    ------------   -----------------  -----------------  -----------------  -----------------
         H            0.000000000000     0.000000000000     1.000000000000     1.007825032230
         H            0.000000000000     0.863844885600    -0.433839207500     1.007825032230
         O            0.000000000000     0.000000000000     0.000000000000    15.994914619570

  Basis Set: 6-31G
    Blend: 6-31G

  -Total Gradient:
     Atom            X                  Y                   Z
    ------   -----------------  -----------------  -----------------
       1        0.000000000000    -0.010207163142     0.050507001540
       2        0.000000000000     0.013311960147    -0.018501483716
       3        0.000000000000    -0.003104797005    -0.032005517824

*** Psi4 exiting successfully. Buy a developer a beer!
