                               Psi4 1.3.2 release

  ==> Input File <==

--------------------------------------------------------------------------
# density fitted hartree fock
molecule h2o {
noreorient
nocom
0 1
H 0.0000000000 0.0000000000 0.9333333333
H 0.0000000000 0.9683942905 -0.1707540414
O 0.0000000000 0.0000000000 0.0000000000
}

set scf_type pk
set basis 6-31g
gradient('hf')

--------------------------------------------------------------------------

    Molecular point group: cs
  Charge       = 0
  Multiplicity = 1
  Basis Set: 6-31G
    Blend: 6-31G

    Orbital Energies [Eh]
    ---------------------

    Doubly Occupied:

       1Ap   -20.563823     2Ap    -1.361672     3Ap    -0.701558
       4Ap    -0.569089     1App   -0.503570

  @RHF Final Energy:   -75.98038542119004

   => Energetics <=

    Nuclear Repulsion Energy =              9.2013019817781156
    One-Electron Energy =                -122.9639496713507043
    Two-Electron Energy =                  37.7822622683825671
    Total Energy =                        -75.9803854211900216

  Dipole Moment: [D]
     X:     0.0000      Y:     2.0814      Z:     1.7272     Total:     2.7047

    Molecular point group: cs

    Geometry (in Angstrom), charge = 0, multiplicity = 1:

       Center              X                  Y                   Z               Mass
    ------------   -----------------  -----------------  -----------------  -----------------
         H            0.000000000000     0.000000000000     0.933333333300     1.007825032230
         H            0.000000000000     0.968394290500    -0.170754041400     1.007825032230
         O            0.000000000000     0.000000000000     0.000000000000    15.994914619570

  Basis Set: 6-31G
    Blend: 6-31G

  -Total Gradient:
     Atom            X                  Y                   Z
    ------   -----------------  -----------------  -----------------
       1        0.000000000000     0.021415743896    -0.027862197515
       2        0.000000000000     0.028389511805     0.015634543676
       3        0.000000000000    -0.049805255701     0.012227653839

*** Psi4 exiting successfully. Buy a developer a beer!
