                               Psi4 1.3.2 release

  ==> Input File <==

--------------------------------------------------------------------------
# density fitted hartree fock
molecule h2o {
0 1
H 0.0000000000 0.0000000000 0.9333333333
H 0.0000000000 0.9355673654 -0.1649657688
O 0.0000000000 0.0000000000 0.0000000000
}

set scf_type pk
set basis 6-31g
gradient('hf')

--------------------------------------------------------------------------

    Molecular point group: cs
  Charge       = 0
  Multiplicity = 1
  Basis Set: 6-31G
    Blend: 6-31G

    Orbital Energies [Eh]
    ---------------------

    Doubly Occupied:

       1Ap   -20.560442     2Ap    -1.370369     3Ap    -0.710532
       4Ap    -0.571760     1App   -0.504394

  @RHF Final Energy:   -75.98096966879515

   => Energetics <=

    Nuclear Repulsion Energy =              9.3588157931250908
    One-Electron Energy =                -123.2445788173701402
    Two-Electron Energy =                  37.9047933554499039
    Total Energy =                        -75.9809696687951543

  Dipole Moment: [D]
     X:    -2.0706      Y:    -1.7303      Z:     0.0000     Total:     2.6984

    Molecular point group: cs

    Geometry (in Angstrom), charge = 0, multiplicity = 1:

       Center              X                  Y                   Z               Mass
    ------------   -----------------  -----------------  -----------------  -----------------
         H            0.052351951576    -0.890337453990     0.000000000000     1.007825032230
         H           -0.883215413824     0.207961648110     0.000000000000     1.007825032230
         O            0.052351951576     0.042995879310     0.000000000000    15.994914619570

  Basis Set: 6-31G
    Blend: 6-31G

  -Total Gradient:
     Atom            X                  Y                   Z
    ------   -----------------  -----------------  -----------------
       1       -0.023086919327     0.027771688437     0.000000000000
       2        0.003923722392    -0.023723648054     0.000000000000
       3        0.019163196935    -0.004048040383     0.000000000000

*** Psi4 exiting successfully. Buy a developer a beer!
