                               Psi4 1.3.2 release

  ==> Input File <==

--------------------------------------------------------------------------
# density fitted hartree fock
molecule h2o {
noreorient
nocom
0 1
H 0.0000000000 0.0000000000 0.9833333333
H 0.0000000000 0.8936326403 -0.4487991802
O 0.0000000000 0.0000000000 0.0000000000
}

set scf_type pk
set basis 6-31g
gradient('hf')

--------------------------------------------------------------------------

    Molecular point group: cs
  Charge       = 0
  Multiplicity = 1
  Basis Set: 6-31G
    Blend: 6-31G

    Orbital Energies [Eh]
    ---------------------

    Doubly Occupied:

       1Ap   -20.556893     2Ap    -1.325876     3Ap    -0.708879
       4Ap    -0.532489     1App   -0.492818

  @RHF Final Energy:   -75.98071297585400

   => Energetics <=

    Nuclear Repulsion Energy =              8.8520686836046707
    One-Electron Energy =                -122.4316515433937411
    Two-Electron Energy =                  37.5988698839350661
    Total Energy =                        -75.9807129758540043

  Dipole Moment: [D]
     X:     0.0000      Y:     2.0631      Z:     1.2570     Total:     2.4159

    Molecular point group: cs

    Geometry (in Angstrom), charge = 0, multiplicity = 1:

       Center              X                  Y                   Z               Mass
    ------------   -----------------  -----------------  -----------------  -----------------
         H            0.000000000000     0.000000000000     0.983333333300     1.007825032230
         H            0.000000000000     0.893632640300    -0.448799180200     1.007825032230
         O            0.000000000000     0.000000000000     0.000000000000    15.994914619570

  Basis Set: 6-31G
    Blend: 6-31G

  -Total Gradient:
     Atom            X                  Y                   Z
    ------   -----------------  -----------------  -----------------
       1        0.000000000000    -0.010934482819     0.035848050379
       2        0.000000000000     0.039962436875    -0.032101950864
       3        0.000000000000    -0.029027954056    -0.003746099515

*** Psi4 exiting successfully. Buy a developer a beer!
