                               Psi4 1.3.2 release

  ==> Input File <==

--------------------------------------------------------------------------
# density fitted hartree fock
molecule h2o {
0 1
H 0.0000000000 0.0000000000 0.9000000000
H 0.0000000000 0.8936326403 -0.4487991802
O 0.0000000000 0.0000000000 0.0000000000
}

set scf_type pk
set basis 6-31g
gradient('hf')

--------------------------------------------------------------------------

    Molecular point group: cs
  Charge       = 0
  Multiplicity = 1
  Basis Set: 6-31G
    Blend: 6-31G

    Orbital Energies [Eh]
    ---------------------

    Doubly Occupied:

       1Ap   -20.549111     2Ap    -1.349423     3Ap    -0.734019
       4Ap    -0.538170     1App   -0.495768

  @RHF Final Energy:   -75.97922655351886

   => Energetics <=

    Nuclear Repulsion Energy =              9.2642768254605876
    One-Electron Energy =                -123.1540266217264730
    Two-Electron Energy =                  37.9105232427470185
    Total Energy =                        -75.9792265535188704

  Dipole Moment: [D]
     X:    -2.0882      Y:    -1.1849      Z:     0.0000     Total:     2.4009

    Molecular point group: cs

    Geometry (in Angstrom), charge = 0, multiplicity = 1:

       Center              X                  Y                   Z               Mass
    ------------   -----------------  -----------------  -----------------  -----------------
         H            0.050005391853    -0.874751958712     0.000000000000     1.007825032230
         H           -0.843627248447     0.474047221488     0.000000000000     1.007825032230
         O            0.050005391853     0.025248041288     0.000000000000    15.994914619570

  Basis Set: 6-31G
    Blend: 6-31G

  -Total Gradient:
     Atom            X                  Y                   Z
    ------   -----------------  -----------------  -----------------
       1        0.008898667620     0.064410267847     0.000000000000
       2       -0.042944583588     0.030529655226     0.000000000000
       3        0.034045915968    -0.094939923073     0.000000000000

*** Psi4 exiting successfully. Buy a developer a beer!
