                               Psi4 1.3.2 release

  ==> Input File <==

--------------------------------------------------------------------------
# density fitted hartree fock
molecule h2o {
noreorient
nocom
0 1
H 0.0000000000 0.0000000000 0.9471306471
H 0.0000000000 0.8809518300 -0.3478222762
O 0.0000000000 0.0000000000 0.0000000000
}

set scf_type pk
set basis 6-31g
set e_convergence 10
gradient('hf')

--------------------------------------------------------------------------

    Molecular point group: cs
  Charge       = 0
  Multiplicity = 1
  Basis Set: 6-31G
    Blend: 6-31G

    Orbital Energies [Eh]
    ---------------------

    Doubly Occupied:

       1Ap   -20.553011     2Ap    -1.353875     3Ap    -0.727879
       4Ap    -0.548602     1App   -0.498466

  @RHF Final Energy:   -75.98534604353135

   => Energetics <=

    Nuclear Repulsion Energy =              9.2773323253140525
    One-Electron Energy =                -123.1616916351299551
    Two-Electron Energy =                  37.8990132662845411
    Total Energy =                        -75.9853460435313650

  Dipole Moment: [D]
     X:     0.0000      Y:     2.0666      Z:     1.4059     Total:     2.4995

    Molecular point group: cs

    Geometry (in Angstrom), charge = 0, multiplicity = 1:

       Center              X                  Y                   Z               Mass
    ------------   -----------------  -----------------  -----------------  -----------------
         H            0.000000000000     0.000000000000     0.947130647100     1.007825032230
         H            0.000000000000     0.880951830000    -0.347822276200     1.007825032230
         O            0.000000000000     0.000000000000     0.000000000000    15.994914619570

  Basis Set: 6-31G
    Blend: 6-31G

  -Total Gradient:
     Atom            X                  Y                   Z
    ------   -----------------  -----------------  -----------------
       1        0.000000000000     0.000205165136    -0.002788072143
       2        0.000000000000    -0.002517916931     0.001214715436
       3        0.000000000000     0.002312751796     0.001573356707

*** Psi4 exiting successfully. Buy a developer a beer!
