                               Psi4 1.3.2 release

  ==> Input File <==

--------------------------------------------------------------------------
# density fitted hartree fock
molecule h2o {
0 1
H 0.0000000000 0.0000000000 0.9500000000
H 0.0000000000 0.8570016998 -0.3696744483
O 0.0000000000 0.0000000000 0.0000000000
}

set scf_type pk
set basis 6-31g
gradient('hf')

--------------------------------------------------------------------------

    Molecular point group: cs
  Charge       = 0
  Multiplicity = 1
  Basis Set: 6-31G
    Blend: 6-31G

    Orbital Energies [Eh]
    ---------------------

    Doubly Occupied:

       1Ap   -20.550553     2Ap    -1.354908     3Ap    -0.734025
       4Ap    -0.546009     1App   -0.497937

  @RHF Final Energy:   -75.98501752873318

   => Energetics <=

    Nuclear Repulsion Energy =              9.3283334935080688
    One-Electron Energy =                -123.2598375466221228
    Two-Electron Energy =                  37.9464865243808660
    Total Energy =                        -75.9850175287331808

  Dipole Moment: [D]
     X:    -2.0503      Y:    -1.3640      Z:     0.0000     Total:     2.4626

    Molecular point group: cs

    Geometry (in Angstrom), charge = 0, multiplicity = 1:

       Center              X                  Y                   Z               Mass
    ------------   -----------------  -----------------  -----------------  -----------------
         H            0.047955618320    -0.917526469708     0.000000000000     1.007825032230
         H           -0.809046081480     0.402147978592     0.000000000000     1.007825032230
         O            0.047955618320     0.032473530292     0.000000000000    15.994914619570

  Basis Set: 6-31G
    Blend: 6-31G

  -Total Gradient:
     Atom            X                  Y                   Z
    ------   -----------------  -----------------  -----------------
       1        0.002360712322    -0.001931870813     0.000000000000
       2        0.017656946465    -0.004999576602     0.000000000000
       3       -0.020017658787     0.006931447415     0.000000000000

*** Psi4 exiting successfully. Buy a developer a beer!
