                               Psi4 1.2.1 release

  ==> Input File <==

--------------------------------------------------------------------------
# density-fitted hartree fock energies and gradients with 6-31g
molecule h2o {
0 1
H 0.0000000000 0.0000000000 1.0000000000
H 0.0000000000 1.0142221176 -0.2717599974
O 0.0000000000 0.0000000000 0.0000000000
}

set basis 6-31g

gradient('mp2')
--------------------------------------------------------------------------

    Molecular point group: cs
  Charge       = 0
  Multiplicity = 1
  Basis Set: 6-31G
    Blend: 6-31G
  Basis Set: (6-31G AUX)
    Blend: CC-PVDZ-JKFIT

    Orbital Energies [Eh]
    ---------------------

    Doubly Occupied:

       1Ap   -20.573304     2Ap    -1.323253     3Ap    -0.674915
       4Ap    -0.549415     1App   -0.498065

  @DF-RHF Final Energy:   -75.97459821709199

   => Energetics <=

    Nuclear Repulsion Energy =              8.5905593805640024
    One-Electron Energy =                -121.8924119105950723
    Two-Electron Energy =                  37.3272543129390826
    Total Energy =                        -75.9745982170919945

  Dipole Moment: [D]
     X:    -2.1051      Y:    -1.5950      Z:     0.0000     Total:     2.6411

  Basis Set: (6-31G AUX)
    Blend: CC-PVDZ-RI
    Molecular point group: cs

    Geometry (in Angstrom), charge = 0, multiplicity = 1:

       Center              X                  Y                   Z               Mass
    ------------   -----------------  -----------------  -----------------  -----------------
         H            0.056753269881    -0.959249556199     0.000000000000     1.007825032070
         H           -0.957468847719     0.312510441201     0.000000000000     1.007825032070
         O            0.056753269881     0.040750443801     0.000000000000    15.994914619560

  Basis Set: 6-31G
    Blend: 6-31G
  Basis Set: (6-31G AUX)
    Blend: CC-PVDZ-JKFIT
  Basis Set: (6-31G AUX)
    Blend: CC-PVDZ-JKFIT
	 Reference Energy          =     -75.9745982170919945 [Eh]
	 Singles Energy            =      -0.0000000000000000 [Eh]
	 Same-Spin Energy          =      -0.0315188549083600 [Eh]
	 Opposite-Spin Energy      =      -0.1034334003241862 [Eh]
	 Correlation Energy        =      -0.1349522552325463 [Eh]
	 Total Energy              =     -76.1095504723245426 [Eh]

	 ================> DF-SCS-MP2 Energies <==================
	-----------------------------------------------------------
	 SCS Same-Spin Scale       =       0.3333333333333333 [-]
	 SCS Opposite-Spin Scale   =       1.2000000000000000 [-]
	 SCS Same-Spin Energy      =      -0.0105062849694533 [Eh]
	 SCS Opposite-Spin Energy  =      -0.1241200803890235 [Eh]
	 SCS Correlation Energy    =      -0.1346263653584768 [Eh]
	 SCS Total Energy          =     -76.1092245824504658 [Eh]
	-----------------------------------------------------------

  -Total Gradient:
     Atom            X                  Y                   Z
    ------   -----------------  -----------------  -----------------
       1       -0.002529980916    -0.017121545032    -0.000000000000
       2       -0.050411301376     0.011013163063     0.000000000000
       3        0.052941282292     0.006108381968    -0.000000000000

*** Psi4 exiting successfully. Buy a developer a beer!
