                               Psi4 1.2.1 release

  ==> Input File <==

--------------------------------------------------------------------------
# density-fitted hartree fock energies and gradients with 6-31g
molecule h2o {
0 1
H 0.0000000000 0.0000000000 1.0500000000
H 0.0000000000 1.0806465139 -0.3933231648
O 0.0000000000 0.0000000000 0.0000000000
}

set basis 6-31g

gradient('mp2')
--------------------------------------------------------------------------

    Molecular point group: cs
  Charge       = 0
  Multiplicity = 1
  Basis Set: 6-31G
    Blend: 6-31G
  Basis Set: (6-31G AUX)
    Blend: CC-PVDZ-JKFIT

    Orbital Energies [Eh]
    ---------------------

    Doubly Occupied:

       1Ap   -20.582633     2Ap    -1.290022     3Ap    -0.645574
       4Ap    -0.528414     1App   -0.492942

  @DF-RHF Final Energy:   -75.95012353512035

   => Energetics <=

    Nuclear Repulsion Energy =              8.0065496231721980
    One-Electron Energy =                -120.8341755975125693
    Two-Electron Energy =                  36.8775024392200095
    Total Energy =                        -75.9501235351203690

  Dipole Moment: [D]
     X:    -2.1131      Y:    -1.4405      Z:     0.0000     Total:     2.5574

  Basis Set: (6-31G AUX)
    Blend: CC-PVDZ-RI
    Molecular point group: cs

    Geometry (in Angstrom), charge = 0, multiplicity = 1:

       Center              X                  Y                   Z               Mass
    ------------   -----------------  -----------------  -----------------  -----------------
         H            0.060470208828    -1.013254047604     0.000000000000     1.007825032070
         H           -1.020176305072     0.430069117196     0.000000000000     1.007825032070
         O            0.060470208828     0.036745952396     0.000000000000    15.994914619560

  Basis Set: 6-31G
    Blend: 6-31G
  Basis Set: (6-31G AUX)
    Blend: CC-PVDZ-JKFIT
  Basis Set: (6-31G AUX)
    Blend: CC-PVDZ-JKFIT
	 Reference Energy          =     -75.9501235351203547 [Eh]
	 Singles Energy            =      -0.0000000000000000 [Eh]
	 Same-Spin Energy          =      -0.0328842956248117 [Eh]
	 Opposite-Spin Energy      =      -0.1084434195915608 [Eh]
	 Correlation Energy        =      -0.1413277152163725 [Eh]
	 Total Energy              =     -76.0914512503367320 [Eh]

	 ================> DF-SCS-MP2 Energies <==================
	-----------------------------------------------------------
	 SCS Same-Spin Scale       =       0.3333333333333333 [-]
	 SCS Opposite-Spin Scale   =       1.2000000000000000 [-]
	 SCS Same-Spin Energy      =      -0.0109614318749372 [Eh]
	 SCS Opposite-Spin Energy  =      -0.1301321035098730 [Eh]
	 SCS Correlation Energy    =      -0.1410935353848102 [Eh]
	 SCS Total Energy          =     -76.0912170705051665 [Eh]
	-----------------------------------------------------------

  -Total Gradient:
     Atom            X                  Y                   Z
    ------   -----------------  -----------------  -----------------
       1        0.010352637674    -0.051055829752     0.000000000000
       2       -0.082957724586     0.040253184001     0.000000000000
       3        0.072605086912     0.010802645751    -0.000000000000

*** Psi4 exiting successfully. Buy a developer a beer!
