                               Psi4 1.2.1 release

  ==> Input File <==

--------------------------------------------------------------------------
# density-fitted hartree fock energies and gradients with 6-31g
molecule h2o {
0 1
H 0.0000000000 0.0000000000 0.9000000000
H 0.0000000000 0.9355673654 -0.1649657688
O 0.0000000000 0.0000000000 0.0000000000
}

set basis 6-31g

gradient('mp2')
--------------------------------------------------------------------------

    Molecular point group: cs
  Charge       = 0
  Multiplicity = 1
  Basis Set: 6-31G
    Blend: 6-31G
  Basis Set: (6-31G AUX)
    Blend: CC-PVDZ-JKFIT

    Orbital Energies [Eh]
    ---------------------

    Doubly Occupied:

       1Ap   -20.556979     2Ap    -1.380746     3Ap    -0.719988
       4Ap    -0.574096     1App   -0.505402

  @DF-RHF Final Energy:   -75.97778291397894

   => Energetics <=

    Nuclear Repulsion Energy =              9.5333315149577267
    One-Electron Energy =                -123.5478073675050439
    Two-Electron Energy =                  38.0366929385683790
    Total Energy =                        -75.9777829139789418

  Dipole Moment: [D]
     X:    -2.0728      Y:    -1.7158      Z:     0.0000     Total:     2.6908

  Basis Set: (6-31G AUX)
    Blend: CC-PVDZ-RI
    Molecular point group: cs

    Geometry (in Angstrom), charge = 0, multiplicity = 1:

       Center              X                  Y                   Z               Mass
    ------------   -----------------  -----------------  -----------------  -----------------
         H            0.052351951568    -0.858869368582     0.000000000000     1.007825032070
         H           -0.883215413832     0.206096400218     0.000000000000     1.007825032070
         O            0.052351951568     0.041130631418     0.000000000000    15.994914619560

  Basis Set: 6-31G
    Blend: 6-31G
  Basis Set: (6-31G AUX)
    Blend: CC-PVDZ-JKFIT
  Basis Set: (6-31G AUX)
    Blend: CC-PVDZ-JKFIT
	 Reference Energy          =     -75.9777829139789418 [Eh]
	 Singles Energy            =      -0.0000000000000000 [Eh]
	 Same-Spin Energy          =      -0.0294260534353974 [Eh]
	 Opposite-Spin Energy      =      -0.0966512027689299 [Eh]
	 Correlation Energy        =      -0.1260772562043273 [Eh]
	 Total Energy              =     -76.1038601701832675 [Eh]

	 ================> DF-SCS-MP2 Energies <==================
	-----------------------------------------------------------
	 SCS Same-Spin Scale       =       0.3333333333333333 [-]
	 SCS Opposite-Spin Scale   =       1.2000000000000000 [-]
	 SCS Same-Spin Energy      =      -0.0098086844784658 [Eh]
	 SCS Opposite-Spin Energy  =      -0.1159814433227159 [Eh]
	 SCS Correlation Energy    =      -0.1257901278011817 [Eh]
	 SCS Total Energy          =     -76.1035730417801233 [Eh]
	-----------------------------------------------------------

  -Total Gradient:
     Atom            X                  Y                   Z
    ------   -----------------  -----------------  -----------------
       1       -0.023275022119     0.099987042097     0.000000000000
       2        0.027684557464    -0.027271715712    -0.000000000000
       3       -0.004409535345    -0.072715326385    -0.000000000000

*** Psi4 exiting successfully. Buy a developer a beer!
