                               Psi4 1.3.2 release

  ==> Input File <==

--------------------------------------------------------------------------
import psi4
import numpy as np

basis {
assign s_orb
[ s_orb ]
cartesian
****
H     0
S   1   1.00
      0.50000000000      1.0000000000
S   1   1.00
      0.40000000000      1.0000000000
S   1   1.00
      0.30000000000      1.0000000000
S   1   1.00
      0.20000000000      1.0000000000
S   1   1.00
      0.10000000000      1.0000000000
S   1   1.00
      0.05000000000      1.0000000000
S   1   1.00
      0.01000000000      1.0000000000
S   1   1.00
      0.00100000000      1.0000000000
****
}

molecule h2o {
symmetry c1
units bohr
0 1
H 0.000000000000 0.000000000000 -0.849220457955
H 0.000000000000 0.000000000000  0.849220457955
}

set scf_type pk
set mp2_type conv
set cc_type conv
set puream false
set maxiter 20
set e_convergence 6
set d_convergence 6
e1, wfn1 = hessian('hf', return_wfn=True, dertype='gradient')
#e2, wfn2 = gradient('mp2', return_wfn=True)
#junk, wfn3 = gradient('lccd', return_wfn=True)
#e3 = energy('lccd')
print(wfn1.energy())
print(np.asarray(wfn1.gradient()))
print(np.asarray(wfn1.hessian()))
#print(wfn2.energy())
#print(np.asarray(wfn2.gradient()))
#print(e3)
#print(np.asarray(wfn3.gradient()))

mol = wfn1.molecule()
bs = wfn1.basisset()
basis = psi4.core.BasisSet.build(mol)
mints = psi4.core.MintsHelper(basis)
C = np.asarray(wfn1.Ca())
np.save('C4', C)

--------------------------------------------------------------------------

    Molecular point group: c1
  Charge       = 0
  Multiplicity = 1
  Basis Set: ANONYMOUS7BB55DDB
    Blend: S_ORB
  @RHF Final Energy:    -1.06888692904112
    Total Energy =                         -1.0688869290411245
    Molecular point group: c1
  Basis Set: ANONYMOUS7BB55DDB
    Blend: S_ORB
  Basis Set: ANONYMOUS7BB55DDB
    Blend: S_ORB
  @RHF Final Energy:    -1.06888692907531
    Total Energy =                         -1.0688869290753149
  Basis Set: ANONYMOUS7BB55DDB
    Blend: S_ORB
  Basis Set: ANONYMOUS7BB55DDB
    Blend: S_ORB
  @RHF Final Energy:    -1.06888610977408
    Total Energy =                         -1.0688861097740774
  Basis Set: ANONYMOUS7BB55DDB
    Blend: S_ORB
  Basis Set: ANONYMOUS7BB55DDB
    Blend: S_ORB
  @RHF Final Energy:    -1.06888610976451
    Total Energy =                         -1.0688861097645099
  Basis Set: ANONYMOUS7BB55DDB
    Blend: S_ORB
  Basis Set: ANONYMOUS7BB55DDB
    Blend: S_ORB
  @RHF Final Energy:    -1.06888610976102
    Total Energy =                         -1.0688861097610194
  Basis Set: ANONYMOUS7BB55DDB
    Blend: S_ORB
  Basis Set: ANONYMOUS7BB55DDB
    Blend: S_ORB
  @RHF Final Energy:    -1.06888610976018
    Total Energy =                         -1.0688861097601792
  Basis Set: ANONYMOUS7BB55DDB
    Blend: S_ORB
  Basis Set: ANONYMOUS7BB55DDB
    Blend: S_ORB
  @RHF Final Energy:    -1.06848826487585
    Total Energy =                         -1.0684882648758509
  Basis Set: ANONYMOUS7BB55DDB
    Blend: S_ORB
    Molecular point group: c1
  Charge       = 0
  Multiplicity = 1
  Basis Set: ANONYMOUS7BB55DDB
    Blend: S_ORB

    Orbital Energies [Eh]
    ---------------------

    Doubly Occupied:

       1A     -0.538177

  @RHF Final Energy:    -1.06927842560833

   => Energetics <=

    Nuclear Repulsion Energy =              0.5912271285926864
    One-Electron Energy =                  -2.2446556992031219
    Two-Electron Energy =                   0.5841501450021074
    Total Energy =                         -1.0692784256083281

  Dipole Moment: [D]
     X:     0.0000      Y:     0.0000      Z:     0.0000     Total:     0.0000

    Molecular point group: c1

    Geometry (in Bohr), charge = 0, multiplicity = 1:

       Center              X                  Y                   Z               Mass
    ------------   -----------------  -----------------  -----------------  -----------------
         H            0.000000000000     0.000000000000    -0.845698676226     1.007825032230
         H            0.000000000000     0.000000000000     0.845698676226     1.007825032230

  Basis Set: ANONYMOUS7BB55DDB
    Blend: S_ORB

  -Total Gradient:
     Atom            X                  Y                   Z
    ------   -----------------  -----------------  -----------------
       1        0.000000000000     0.000000000000    -0.055064721763
       2        0.000000000000     0.000000000000     0.055064721762

*** Psi4 exiting successfully. Buy a developer a beer!
