                               Psi4 1.3.2 release

  ==> Input File <==

--------------------------------------------------------------------------
import psi4
import numpy as np

basis {
assign s_orb
[ s_orb ]
cartesian
****
H     0
S   1   1.00
      0.50000000000      1.0000000000
S   1   1.00
      0.40000000000      1.0000000000
S   1   1.00
      0.30000000000      1.0000000000
S   1   1.00
      0.20000000000      1.0000000000
****
}

molecule h2o {
symmetry c1
units bohr
0 1
H 0.000000000000 0.000000000000 -0.849220457955
H 0.000000000000 0.000000000000  0.849220457955
}

set scf_type pk
set mp2_type conv
set cc_type conv
set puream false
set maxiter 20
set e_convergence 6
set d_convergence 6
e1, wfn1 = gradient('hf', return_wfn=True)
e2, wfn2 = gradient('mp2', return_wfn=True)
junk, wfn3 = gradient('lccd', return_wfn=True)
e3 = energy('lccd')
print(wfn1.energy())
print(np.asarray(wfn1.gradient()))
print(wfn2.energy())
print(np.asarray(wfn2.gradient()))
print(e3)
print(np.asarray(wfn3.gradient()))

mol = wfn1.molecule()
bs = wfn1.basisset()
basis = psi4.core.BasisSet.build(mol)
mints = psi4.core.MintsHelper(basis)
C = np.asarray(wfn1.Ca())
np.save('C2', C)

--------------------------------------------------------------------------

    Molecular point group: c1
  Charge       = 0
  Multiplicity = 1
  Basis Set: ANONYMOUS539D344A
    Blend: S_ORB
  @RHF Final Energy:    -1.06085978352655
    Total Energy =                         -1.0608597835265496
    Molecular point group: c1
  Basis Set: ANONYMOUS539D344A
    Blend: S_ORB
  Basis Set: ANONYMOUS539D344A
    Blend: S_ORB
  @RHF Final Energy:    -1.06085978352666
    Total Energy =                         -1.0608597835266602
  Basis Set: ANONYMOUS539D344A
    Blend: S_ORB
  @RHF Final Energy:    -1.06085978352666
    Total Energy =                         -1.0608597835266602
    Molecular point group: c1

  -Total gradient:
     Atom            X                  Y                   Z
    ------   -----------------  -----------------  -----------------
       1        0.000000000000     0.000000000000    -0.043970312253
       2        0.000000000000     0.000000000000     0.043970312253

    Molecular point group: c1

    Geometry (in Bohr), charge = 0, multiplicity = 1:

       Center              X                  Y                   Z               Mass
    ------------   -----------------  -----------------  -----------------  -----------------
         H            0.000000000000     0.000000000000    -0.849220457955     1.007825032230
         H            0.000000000000     0.000000000000     0.849220457955     1.007825032230

  Charge       = 0
  Multiplicity = 1
  Basis Set: ANONYMOUS539D344A
    Blend: S_ORB

    Orbital Energies [Eh]
    ---------------------

    Doubly Occupied:

       1A     -0.530531

  @RHF Final Energy:    -1.06085978352655

   => Energetics <=

    Nuclear Repulsion Energy =              0.5887752647928965
    One-Electron Energy =                  -2.2382079337080043
    Two-Electron Energy =                   0.5885728853885581
    Total Energy =                         -1.0608597835265496

  Dipole Moment: [D]
     X:     0.0000      Y:     0.0000      Z:     0.0000     Total:     0.0000

      * SCS-MP2 total energy:                   -1.081305143785
      * MP2 total energy:                       -1.077897583742
*** Psi4 exiting successfully. Buy a developer a beer!
