                               Psi4 1.3.2 release

  ==> Input File <==

--------------------------------------------------------------------------
# density fitted hartree fock
molecule h2o {
0 1
H 0.0000000000 0.0000000000 0.9500000000
H 0.0000000000 0.9243926271 -0.2190850772
O 0.0000000000 0.0000000000 0.0000000000
}

set scf_type pk
set basis 6-31g
gradient('hf')

--------------------------------------------------------------------------

    Molecular point group: c2v
  Charge       = 0
  Multiplicity = 1
  Basis Set: 6-31G
    Blend: 6-31G

    Orbital Energies [Eh]
    ---------------------

    Doubly Occupied:

       1A1   -20.559803     2A1    -1.361677     1B2    -0.712164
       3A1    -0.563998     1B1    -0.502360

  @RHF Final Energy:   -75.98345984838267

   => Energetics <=

    Nuclear Repulsion Energy =              9.2675178964530751
    One-Electron Energy =                -123.1019537293689012
    Two-Electron Energy =                  37.8509759845331786
    Total Energy =                        -75.9834598483826511

  Dipole Moment: [D]
     X:     0.0000      Y:     0.0000      Z:     2.6473     Total:     2.6473

    Molecular point group: c2v

    Geometry (in Angstrom), charge = 0, multiplicity = 1:

       Center              X                  Y                   Z               Mass
    ------------   -----------------  -----------------  -----------------  -----------------
         H            0.000000000000    -0.745194881687     0.523280819130     1.007825032230
         H           -0.000000000000     0.745194881687     0.523280819130     1.007825032230
         O            0.000000000000     0.000000000000    -0.065942897596    15.994914619570

  Basis Set: 6-31G
    Blend: 6-31G

  -Total Gradient:
     Atom            X                  Y                   Z
    ------   -----------------  -----------------  -----------------
       1       -0.000000000000     0.013683002680     0.008504693743
       2        0.000000000000    -0.013683002680     0.008504693743
       3       -0.000000000000     0.000000000000    -0.017009387486

*** Psi4 exiting successfully. Buy a developer a beer!
