                               Psi4 1.2.1 release

  ==> Input File <==

--------------------------------------------------------------------------
# density-fitted hartree fock energies and gradients with 6-31g
molecule h2o {
0 1
H 0.0000000000 0.0000000000 0.9500000000
H 0.0000000000 0.9848077530 -0.1736481777
O 0.0000000000 0.0000000000 0.0000000000
}

set basis 6-31g

gradient('mp2')
--------------------------------------------------------------------------

    Molecular point group: cs
  Charge       = 0
  Multiplicity = 1
  Basis Set: 6-31G
    Blend: 6-31G
  Basis Set: (6-31G AUX)
    Blend: CC-PVDZ-JKFIT

    Orbital Energies [Eh]
    ---------------------

    Doubly Occupied:

       1Ap   -20.567226     2Ap    -1.352760     3Ap    -0.692669
       4Ap    -0.566562     1App   -0.502764

  @DF-RHF Final Energy:   -75.97991363748096

   => Energetics <=

    Nuclear Repulsion Energy =              9.0438170261446551
    One-Electron Energy =                -122.6834993165209511
    Two-Electron Energy =                  37.6597686528953375
    Total Energy =                        -75.9799136374809621

  Dipole Moment: [D]
     X:    -2.0848      Y:    -1.7322      Z:     0.0000     Total:     2.7105

  Basis Set: (6-31G AUX)
    Blend: CC-PVDZ-RI
    Molecular point group: cs

    Geometry (in Angstrom), charge = 0, multiplicity = 1:

       Center              X                  Y                   Z               Mass
    ------------   -----------------  -----------------  -----------------  -----------------
         H            0.055107317437    -0.906557342096     0.000000000000     1.007825032070
         H           -0.929700435563     0.217090835604     0.000000000000     1.007825032070
         O            0.055107317437     0.043442657904     0.000000000000    15.994914619560

  Basis Set: 6-31G
    Blend: 6-31G
  Basis Set: (6-31G AUX)
    Blend: CC-PVDZ-JKFIT
  Basis Set: (6-31G AUX)
    Blend: CC-PVDZ-JKFIT
	 Reference Energy          =     -75.9799136374809621 [Eh]
	 Singles Energy            =      -0.0000000000000000 [Eh]
	 Same-Spin Energy          =      -0.0305076627162173 [Eh]
	 Opposite-Spin Energy      =      -0.1002423405393926 [Eh]
	 Correlation Energy        =      -0.1307500032556099 [Eh]
	 Total Energy              =     -76.1106636407365755 [Eh]

	 ================> DF-SCS-MP2 Energies <==================
	-----------------------------------------------------------
	 SCS Same-Spin Scale       =       0.3333333333333333 [-]
	 SCS Opposite-Spin Scale   =       1.2000000000000000 [-]
	 SCS Same-Spin Energy      =      -0.0101692209054058 [Eh]
	 SCS Opposite-Spin Energy  =      -0.1202908086472712 [Eh]
	 SCS Correlation Energy    =      -0.1304600295526769 [Eh]
	 SCS Total Energy          =     -76.1103736670336417 [Eh]
	-----------------------------------------------------------

  -Total Gradient:
     Atom            X                  Y                   Z
    ------   -----------------  -----------------  -----------------
       1       -0.016664472478     0.033497254405    -0.000000000000
       2       -0.017411364398    -0.013005382711    -0.000000000000
       3        0.034075836875    -0.020491871694     0.000000000000

*** Psi4 exiting successfully. Buy a developer a beer!
