                               Psi4 1.2.1 release

  ==> Input File <==

--------------------------------------------------------------------------
# density-fitted hartree fock energies and gradients with 6-31g
molecule h2o {
0 1
H 0.0000000000 0.0000000000 0.9500000000
H 0.0000000000 1.0340481407 -0.1823305866
O 0.0000000000 0.0000000000 0.0000000000
}

set basis 6-31g

gradient('mp2')
--------------------------------------------------------------------------

    Molecular point group: cs
  Charge       = 0
  Multiplicity = 1
  Basis Set: 6-31G
    Blend: 6-31G
  Basis Set: (6-31G AUX)
    Blend: CC-PVDZ-JKFIT

    Orbital Energies [Eh]
    ---------------------

    Doubly Occupied:

       1Ap   -20.572109     2Ap    -1.341981     3Ap    -0.680489
       4Ap    -0.562069     1App   -0.501870

  @DF-RHF Final Energy:   -75.97456475835610

   => Energetics <=

    Nuclear Repulsion Energy =              8.8331477829266234
    One-Electron Energy =                -122.2983888832652895
    Two-Electron Energy =                  37.4906763419825495
    Total Energy =                        -75.9745647583561095

  Dipole Moment: [D]
     X:    -2.0944      Y:    -1.7296      Z:     0.0000     Total:     2.7163

  Basis Set: (6-31G AUX)
    Blend: CC-PVDZ-RI
    Molecular point group: cs

    Geometry (in Angstrom), charge = 0, multiplicity = 1:

       Center              X                  Y                   Z               Mass
    ------------   -----------------  -----------------  -----------------  -----------------
         H            0.057862683312    -0.907043187442     0.000000000000     1.007825032070
         H           -0.976185457388     0.225287399158     0.000000000000     1.007825032070
         O            0.057862683312     0.042956812558     0.000000000000    15.994914619560

  Basis Set: 6-31G
    Blend: 6-31G
  Basis Set: (6-31G AUX)
    Blend: CC-PVDZ-JKFIT
  Basis Set: (6-31G AUX)
    Blend: CC-PVDZ-JKFIT
	 Reference Energy          =     -75.9745647583560952 [Eh]
	 Singles Energy            =      -0.0000000000000000 [Eh]
	 Same-Spin Energy          =      -0.0309962616486325 [Eh]
	 Opposite-Spin Energy      =      -0.1020216258385876 [Eh]
	 Correlation Energy        =      -0.1330178874872202 [Eh]
	 Total Energy              =     -76.1075826458433085 [Eh]

	 ================> DF-SCS-MP2 Energies <==================
	-----------------------------------------------------------
	 SCS Same-Spin Scale       =       0.3333333333333333 [-]
	 SCS Opposite-Spin Scale   =       1.2000000000000000 [-]
	 SCS Same-Spin Energy      =      -0.0103320872162108 [Eh]
	 SCS Opposite-Spin Energy  =      -0.1224259510063052 [Eh]
	 SCS Correlation Energy    =      -0.1327580382225160 [Eh]
	 SCS Total Energy          =     -76.1073227965786145 [Eh]
	-----------------------------------------------------------

  -Total Gradient:
     Atom            X                  Y                   Z
    ------   -----------------  -----------------  -----------------
       1       -0.013944140830     0.034273777801    -0.000000000000
       2       -0.049779731853    -0.004033242103     0.000000000000
       3        0.063723872683    -0.030240535698     0.000000000000

*** Psi4 exiting successfully. Buy a developer a beer!
