                               Psi4 1.3.2 release

  ==> Input File <==

--------------------------------------------------------------------------
# density fitted hartree fock
molecule h2o {
noreorient
nocom
0 1
H 0.0000000000 0.0000000000 0.9496306472
H 0.0000000000 0.8831858174 -0.3489716005
O 0.0000000000 0.0000000000 0.0000000000
}

set scf_type pk
set basis 6-31g
set e_convergence 10
gradient('hf')

--------------------------------------------------------------------------

    Molecular point group: cs
  Charge       = 0
  Multiplicity = 1
  Basis Set: 6-31G
    Blend: 6-31G

    Orbital Energies [Eh]
    ---------------------

    Doubly Occupied:

       1Ap   -20.553473     2Ap    -1.352514     3Ap    -0.726402
       4Ap    -0.548207     1App   -0.498291

  @RHF Final Energy:   -75.98535917035622

   => Energetics <=

    Nuclear Repulsion Energy =              9.2528787931792529
    One-Electron Energy =                -123.1187005480048526
    Two-Electron Energy =                  37.8804625844693845
    Total Energy =                        -75.9853591703562188

  Dipole Moment: [D]
     X:     0.0000      Y:     2.0675      Z:     1.4061     Total:     2.5003

    Molecular point group: cs

    Geometry (in Angstrom), charge = 0, multiplicity = 1:

       Center              X                  Y                   Z               Mass
    ------------   -----------------  -----------------  -----------------  -----------------
         H            0.000000000000     0.000000000000     0.949630647200     1.007825032230
         H            0.000000000000     0.883185817400    -0.348971600500     1.007825032230
         O            0.000000000000     0.000000000000     0.000000000000    15.994914619570

  Basis Set: 6-31G
    Blend: 6-31G

  -Total Gradient:
     Atom            X                  Y                   Z
    ------   -----------------  -----------------  -----------------
       1        0.000000000000    -0.000025647374     0.000010158743
       2        0.000000000000     0.000000022962    -0.000027585979
       3        0.000000000000     0.000025624412     0.000017427236

*** Psi4 exiting successfully. Buy a developer a beer!
