                               Psi4 1.2a1.dev429

  ==> Input File <==

--------------------------------------------------------------------------
memory 1000 mb

molecule h2o {
0 1
O
H 1 1.0
H 1 1.0  2 104.5
}

set {
    basis 6-31g
    reference rhf
}

optimize('ccsd')
--------------------------------------------------------------------------

    Molecular point group: c2v
  Charge       = 0
  Multiplicity = 1
  Basis Set: 6-31G
    Blend: 6-31G
  @RHF Final Energy:   -75.98015792130757
    Total Energy =                        -75.9801579213075655
      * MP2 total energy                      =  -76.112885258519086
      * CCSD total energy                     =  -76.119564846635996
    Molecular point group: c2v
  Basis Set: 6-31G
    Blend: 6-31G
  @RHF Final Energy:   -75.98334920531536
    Total Energy =                        -75.9833492053153634
      * MP2 total energy                      =  -76.114119014937458
      * CCSD total energy                     =  -76.120708853962739
  Basis Set: 6-31G
    Blend: 6-31G
  @RHF Final Energy:   -75.98407726706112
    Total Energy =                        -75.9840772670611102
      * MP2 total energy                      =  -76.114210209985586
      * CCSD total energy                     =  -76.120770381802799
  Charge       = 0
  Multiplicity = 1
  Basis Set: 6-31G
    Blend: 6-31G

    Orbital Energies (a.u.)
    -----------------------

    Doubly Occupied:

       1A1   -20.560471     2A1    -1.341544     1B2    -0.707261
       3A1    -0.549005     1B1    -0.497981

  @RHF Final Energy:   -75.98400209350055

   => Energetics <=

    Nuclear Repulsion Energy =              9.0084403832006092
    One-Electron Energy =                -122.6723621495470979
    Two-Electron Energy =                  37.6799196728459407
    Total Energy =                        -75.9840020935005498
      * MP2 total energy                      =  -76.114208564384654
      * CCSD total energy                     =  -76.120771424149211

  Mulliken Charges: (a.u.)
   Center  Symbol    Alpha    Beta     Spin     Total
       1     O     4.37294  4.37294  0.00000 -0.74588
       2     H     0.31353  0.31353  0.00000  0.37294
       3     H     0.31353  0.31353  0.00000  0.37294

   Total alpha =  5.00000, Total beta =  5.00000, Total charge = -0.00000

    Molecular point group: c2v

  -Total gradient:
     Atom            X                  Y                   Z
    ------   -----------------  -----------------  -----------------
       1        0.000000000000     0.000000000000    -0.000090684184
       2        0.000000000000    -0.000154217217     0.000045342092
       3       -0.000000000000     0.000154217217     0.000045342092

  **** Optimization is complete! (in 4 steps) ****
    Final optimized geometry and variables:
    Molecular point group: c2v

    Geometry (in Angstrom), charge = 0, multiplicity = 1:

    O
    H             1    0.975929
    H             1    0.975929      2  109.118864

*** Psi4 exiting successfully. Buy a developer a beer!
