                               Psi4 1.2.1 release

  ==> Input File <==

--------------------------------------------------------------------------
# density-fitted hartree fock energies and gradients with 6-31g
molecule h2o {
0 1
H 0.0000000000 0.0000000000 0.9500000000
H 0.0000000000 1.0336618829 -0.3762221577
O 0.0000000000 0.0000000000 0.0000000000
}

set basis 6-31g

gradient('mp2')
--------------------------------------------------------------------------

    Molecular point group: cs
  Charge       = 0
  Multiplicity = 1
  Basis Set: 6-31G
    Blend: 6-31G
  Basis Set: (6-31G AUX)
    Blend: CC-PVDZ-JKFIT

    Orbital Energies [Eh]
    ---------------------

    Doubly Occupied:

       1Ap   -20.568395     2Ap    -1.322694     3Ap    -0.683364
       4Ap    -0.538676     1App   -0.495508

  @DF-RHF Final Energy:   -75.96829346133241

   => Energetics <=

    Nuclear Repulsion Energy =              8.6195027753102025
    One-Electron Energy =                -121.9583201725032779
    Two-Electron Energy =                  37.3705239358606605
    Total Energy =                        -75.9682934613324221

  Dipole Moment: [D]
     X:    -2.1317      Y:    -1.4023      Z:     0.0000     Total:     2.5516

  Basis Set: (6-31G AUX)
    Blend: CC-PVDZ-RI
    Molecular point group: cs

    Geometry (in Angstrom), charge = 0, multiplicity = 1:

       Center              X                  Y                   Z               Mass
    ------------   -----------------  -----------------  -----------------  -----------------
         H            0.057841069316    -0.917892862746     0.000000000000     1.007825032070
         H           -0.975820813584     0.408329294954     0.000000000000     1.007825032070
         O            0.057841069316     0.032107137254     0.000000000000    15.994914619560

  Basis Set: 6-31G
    Blend: 6-31G
  Basis Set: (6-31G AUX)
    Blend: CC-PVDZ-JKFIT
  Basis Set: (6-31G AUX)
    Blend: CC-PVDZ-JKFIT
	 Reference Energy          =     -75.9682934613324079 [Eh]
	 Singles Energy            =      -0.0000000000000000 [Eh]
	 Same-Spin Energy          =      -0.0314152863491631 [Eh]
	 Opposite-Spin Energy      =      -0.1029351352191042 [Eh]
	 Correlation Energy        =      -0.1343504215682674 [Eh]
	 Total Energy              =     -76.1026438829006793 [Eh]

	 ================> DF-SCS-MP2 Energies <==================
	-----------------------------------------------------------
	 SCS Same-Spin Scale       =       0.3333333333333333 [-]
	 SCS Opposite-Spin Scale   =       1.2000000000000000 [-]
	 SCS Same-Spin Energy      =      -0.0104717621163877 [Eh]
	 SCS Opposite-Spin Energy  =      -0.1235221622629251 [Eh]
	 SCS Correlation Energy    =      -0.1339939243793128 [Eh]
	 SCS Total Energy          =     -76.1022873857117190 [Eh]
	-----------------------------------------------------------

  -Total Gradient:
     Atom            X                  Y                   Z
    ------   -----------------  -----------------  -----------------
       1        0.005864329310     0.028333167172    -0.000000000000
       2       -0.072876645739     0.031914615146    -0.000000000000
       3        0.067012316428    -0.060247782318     0.000000000000

*** Psi4 exiting successfully. Buy a developer a beer!
