                               Psi4 1.3.1 release

  ==> Input File <==

--------------------------------------------------------------------------
# density fitted hartree fock
molecule h2o {
0 1
H 0.0000000000 0.0000000000 1.2000000000
H 0.0000000000 0.8034791246 -0.4638888889
O 0.0000000000 0.0000000000 0.0000000000
}

set basis 6-31g
energy('hf')

--------------------------------------------------------------------------

    Molecular point group: cs

    Geometry (in Angstrom), charge = 0, multiplicity = 1:

       Center              X                  Y                   Z               Mass
    ------------   -----------------  -----------------  -----------------  -----------------
         H            0.044960632210    -1.158809109138     0.000000000000     1.007825032230
         H           -0.758518492390     0.505079779762     0.000000000000     1.007825032230
         O            0.044960632210     0.041190890862     0.000000000000    15.994914619570

  Charge       = 0
  Multiplicity = 1
  Basis Set: 6-31G
    Blend: 6-31G
  Basis Set: (6-31G AUX)
    Blend: CC-PVDZ-JKFIT

    Orbital Energies [Eh]
    ---------------------

    Doubly Occupied:

       1Ap   -20.563766     2Ap    -1.306556     3Ap    -0.677165
       4Ap    -0.512355     1App   -0.487967

  @DF-RHF Final Energy:   -75.94121753372492

   => Energetics <=

    Nuclear Repulsion Energy =              8.3772064396242509
    One-Electron Energy =                -121.5412160183373373
    Two-Electron Energy =                  37.2227920449881822
    Total Energy =                        -75.9412175337249096

  Dipole Moment: [D]
     X:    -1.9400      Y:    -1.3577      Z:     0.0000     Total:     2.3679

*** Psi4 exiting successfully. Buy a developer a beer!
