                               Psi4 1.3.2 release

  ==> Input File <==

--------------------------------------------------------------------------
# density fitted hartree fock
molecule h2o {
0 1
H 0.0000000000 0.0000000000 0.9000000000
H 0.0000000000 0.8371578903 -0.4833333333
O 0.0000000000 0.0000000000 0.0000000000
}

set scf_type pk
set basis 6-31g
gradient('hf')

--------------------------------------------------------------------------

    Molecular point group: cs
  Charge       = 0
  Multiplicity = 1
  Basis Set: 6-31G
    Blend: 6-31G

    Orbital Energies [Eh]
    ---------------------

    Doubly Occupied:

       1Ap   -20.543499     2Ap    -1.353220     3Ap    -0.749122
       4Ap    -0.534743     1App   -0.495217

  @RHF Final Energy:   -75.98062229697584

   => Energetics <=

    Nuclear Repulsion Energy =              9.4104689731450684
    One-Electron Energy =                -123.4305811050760298
    Two-Electron Energy =                  38.0394898349551127
    Total Energy =                        -75.9806222969758380

  Dipole Moment: [D]
     X:    -2.0439      Y:    -1.1012      Z:     0.0000     Total:     2.3217

    Molecular point group: cs

    Geometry (in Angstrom), charge = 0, multiplicity = 1:

       Center              X                  Y                   Z               Mass
    ------------   -----------------  -----------------  -----------------  -----------------
         H            0.046845209608    -0.876684401396     0.000000000000     1.007825032230
         H           -0.790312680692     0.506648931904     0.000000000000     1.007825032230
         O            0.046845209608     0.023315598604     0.000000000000    15.994914619570

  Basis Set: 6-31G
    Blend: 6-31G

  -Total Gradient:
     Atom            X                  Y                   Z
    ------   -----------------  -----------------  -----------------
       1        0.012520914066     0.061599325932     0.000000000000
       2       -0.015658634003     0.022501326974     0.000000000000
       3        0.003137719938    -0.084100652907     0.000000000000

*** Psi4 exiting successfully. Buy a developer a beer!
