                               Psi4 1.3.2 release

  ==> Input File <==

--------------------------------------------------------------------------
# density fitted hartree fock
molecule h2o {
0 1
H 0.0000000000 0.0000000000 0.9000000000
H 0.0000000000 0.9406100416 -0.2229286751
O 0.0000000000 0.0000000000 0.0000000000
}

set scf_type pk
set basis 6-31g
gradient('hf')

--------------------------------------------------------------------------

    Molecular point group: cs
  Charge       = 0
  Multiplicity = 1
  Basis Set: 6-31G
    Blend: 6-31G

    Orbital Energies [Eh]
    ---------------------

    Doubly Occupied:

       1Ap   -20.556371     2Ap    -1.372341     3Ap    -0.721852
       4Ap    -0.566203     1App   -0.503442

  @RHF Final Energy:   -75.97984614521553

   => Energetics <=

    Nuclear Repulsion Energy =              9.4444509819340610
    One-Electron Energy =                -123.4081759303983290
    Two-Electron Energy =                  37.9838788032487287
    Total Energy =                        -75.9798461452155323

  Dipole Moment: [D]
     X:    -2.0894      Y:    -1.6135      Z:     0.0000     Total:     2.6399

    Molecular point group: cs

    Geometry (in Angstrom), charge = 0, multiplicity = 1:

       Center              X                  Y                   Z               Mass
    ------------   -----------------  -----------------  -----------------  -----------------
         H            0.052634126810    -0.862112824233     0.000000000000     1.007825032230
         H           -0.887975914790     0.260815850867     0.000000000000     1.007825032230
         O            0.052634126810     0.037887175767     0.000000000000    15.994914619570

  Basis Set: 6-31G
    Blend: 6-31G

  -Total Gradient:
     Atom            X                  Y                   Z
    ------   -----------------  -----------------  -----------------
       1       -0.017496262888     0.072408216106     0.000000000000
       2       -0.015925898926    -0.012966368199     0.000000000000
       3        0.033422161813    -0.059441847908     0.000000000000

*** Psi4 exiting successfully. Buy a developer a beer!
