                               Psi4 1.3.2 release

  ==> Input File <==

--------------------------------------------------------------------------
# density fitted hartree fock
molecule h2o {
noreorient
nocom
0 1
H 0.0000000000 0.0000000000 0.9666666667
H 0.0000000000 0.8941235448 -0.2676830172
O 0.0000000000 0.0000000000 0.0000000000
}

set scf_type pk
set basis 6-31g
gradient('hf')

--------------------------------------------------------------------------

    Molecular point group: cs
  Charge       = 0
  Multiplicity = 1
  Basis Set: 6-31G
    Blend: 6-31G

    Orbital Energies [Eh]
    ---------------------

    Doubly Occupied:

       1Ap   -20.557317     2Ap    -1.358148     3Ap    -0.718130
       4Ap    -0.557464     1App   -0.500759

  @RHF Final Energy:   -75.98411022467106

   => Energetics <=

    Nuclear Repulsion Energy =              9.2623940357161096
    One-Electron Energy =                -123.1093714005080528
    Two-Electron Energy =                  37.8628671401208834
    Total Energy =                        -75.9841102246710562

  Dipole Moment: [D]
     X:     0.0000      Y:     2.0668      Z:     1.5609     Total:     2.5899

    Molecular point group: cs

    Geometry (in Angstrom), charge = 0, multiplicity = 1:

       Center              X                  Y                   Z               Mass
    ------------   -----------------  -----------------  -----------------  -----------------
         H            0.000000000000     0.000000000000     0.966666666700     1.007825032230
         H            0.000000000000     0.894123544800    -0.267683017200     1.007825032230
         O            0.000000000000     0.000000000000     0.000000000000    15.994914619570

  Basis Set: 6-31G
    Blend: 6-31G

  -Total Gradient:
     Atom            X                  Y                   Z
    ------   -----------------  -----------------  -----------------
       1        0.000000000000     0.008555438752     0.014799472220
       2        0.000000000000    -0.019466967752     0.015077597550
       3        0.000000000000     0.010911529000    -0.029877069770

*** Psi4 exiting successfully. Buy a developer a beer!
