                               Psi4 1.2.1 release

  ==> Input File <==

--------------------------------------------------------------------------
# density-fitted hartree fock energies and gradients with 6-31g
molecule h2o {
0 1
H 0.0000000000 0.0000000000 0.9000000000
H 0.0000000000 1.0142221176 -0.2717599974
O 0.0000000000 0.0000000000 0.0000000000
}

set basis 6-31g

gradient('mp2')
--------------------------------------------------------------------------

    Molecular point group: cs
  Charge       = 0
  Multiplicity = 1
  Basis Set: 6-31G
    Blend: 6-31G
  Basis Set: (6-31G AUX)
    Blend: CC-PVDZ-JKFIT

    Orbital Energies [Eh]
    ---------------------

    Doubly Occupied:

       1Ap   -20.563028     2Ap    -1.352386     3Ap    -0.702545
       4Ap    -0.555561     1App   -0.500665

  @DF-RHF Final Energy:   -75.97301268818113

   => Energetics <=

    Nuclear Repulsion Energy =              9.0770875424427153
    One-Electron Energy =                -122.7518292361873335
    Two-Electron Energy =                  37.7017290055634930
    Total Energy =                        -75.9730126881811287

  Dipole Moment: [D]
     X:    -2.1221      Y:    -1.5468      Z:     0.0000     Total:     2.6260

  Basis Set: (6-31G AUX)
    Blend: CC-PVDZ-RI
    Molecular point group: cs

    Geometry (in Angstrom), charge = 0, multiplicity = 1:

       Center              X                  Y                   Z               Mass
    ------------   -----------------  -----------------  -----------------  -----------------
         H            0.056753269881    -0.864845299862     0.000000000000     1.007825032070
         H           -0.957468847719     0.306914697538     0.000000000000     1.007825032070
         O            0.056753269881     0.035154700138     0.000000000000    15.994914619560

  Basis Set: 6-31G
    Blend: 6-31G
  Basis Set: (6-31G AUX)
    Blend: CC-PVDZ-JKFIT
  Basis Set: (6-31G AUX)
    Blend: CC-PVDZ-JKFIT
	 Reference Energy          =     -75.9730126881811287 [Eh]
	 Singles Energy            =      -0.0000000000000000 [Eh]
	 Same-Spin Energy          =      -0.0304071935749881 [Eh]
	 Opposite-Spin Energy      =      -0.0997453787881650 [Eh]
	 Correlation Energy        =      -0.1301525723631531 [Eh]
	 Total Energy              =     -76.1031652605442872 [Eh]

	 ================> DF-SCS-MP2 Energies <==================
	-----------------------------------------------------------
	 SCS Same-Spin Scale       =       0.3333333333333333 [-]
	 SCS Opposite-Spin Scale   =       1.2000000000000000 [-]
	 SCS Same-Spin Energy      =      -0.0101357311916627 [Eh]
	 SCS Opposite-Spin Energy  =      -0.1196944545457980 [Eh]
	 SCS Correlation Energy    =      -0.1298301857374607 [Eh]
	 SCS Total Energy          =     -76.1028428739185898 [Eh]
	-----------------------------------------------------------

  -Total Gradient:
     Atom            X                  Y                   Z
    ------   -----------------  -----------------  -----------------
       1       -0.007442644703     0.097883787676    -0.000000000000
       2       -0.053534720292     0.007740133389     0.000000000000
       3        0.060977364995    -0.105623921065    -0.000000000000

*** Psi4 exiting successfully. Buy a developer a beer!
