                               Psi4 1.2a1.dev429

  ==> Input File <==

--------------------------------------------------------------------------
memory 1000 mb

molecule h2o {
0 1
O
H 1 1.0
H 1 1.0  2 104.5
}

set {
    basis 6-31g
    reference rhf
}

energy('ccsd')
--------------------------------------------------------------------------

    Molecular point group: c2v

    Geometry (in Angstrom), charge = 0, multiplicity = 1:

       Center              X                  Y                   Z               Mass
    ------------   -----------------  -----------------  -----------------  -----------------
           O          0.000000000000     0.000000000000    -0.068516219310    15.994914619560
           H          0.000000000000    -0.790689573744     0.543701060724     1.007825032070
           H          0.000000000000     0.790689573744     0.543701060724     1.007825032070

  Charge       = 0
  Multiplicity = 1
  Basis Set: 6-31G
    Blend: 6-31G

    Orbital Energies (a.u.)
    -----------------------

    Doubly Occupied:

       1A1   -20.568891     2A1    -1.334712     1B2    -0.686878
       3A1    -0.554302     1B1    -0.499291

  @RHF Final Energy:   -75.98015792130758

   => Energetics <=

    Nuclear Repulsion Energy =              8.8014655299720665
    One-Electron Energy =                -122.2750962928101615
    Two-Electron Energy =                  37.4934728415305187
    Total Energy =                        -75.9801579213075797
      * MP2 total energy                      =  -76.112885258518133
      * CCSD total energy                     =  -76.119564846734818
*** Psi4 exiting successfully. Buy a developer a beer!
