                               Psi4 1.3.2 release

  ==> Input File <==

--------------------------------------------------------------------------
# density fitted hartree fock
molecule h2o {
noreorient
nocom
0 1
H 0.0000000000 0.0000000000 0.9000000000
H 0.0000000000 0.8613849024 -0.3135184647
O 0.0000000000 0.0000000000 0.0000000000
}

set scf_type pk
set basis 6-31g
gradient('hf')

--------------------------------------------------------------------------

    Molecular point group: cs
  Charge       = 0
  Multiplicity = 1
  Basis Set: 6-31G
    Blend: 6-31G

    Orbital Energies [Eh]
    ---------------------

    Doubly Occupied:

       1Ap   -20.546773     2Ap    -1.377810     3Ap    -0.749120
       4Ap    -0.557250     1App   -0.502019

  @RHF Final Energy:   -75.98099173385529

   => Energetics <=

    Nuclear Repulsion Energy =              9.6776636132441887
    One-Electron Energy =                -123.8513679740465250
    Two-Electron Energy =                  38.1927126269470278
    Total Energy =                        -75.9809917338553049

  Dipole Moment: [D]
     X:     0.0000      Y:     2.0630      Z:     1.4298     Total:     2.5100

    Molecular point group: cs

    Geometry (in Angstrom), charge = 0, multiplicity = 1:

       Center              X                  Y                   Z               Mass
    ------------   -----------------  -----------------  -----------------  -----------------
         H            0.000000000000     0.000000000000     0.900000000000     1.007825032230
         H            0.000000000000     0.861384902400    -0.313518464700     1.007825032230
         O            0.000000000000     0.000000000000     0.000000000000    15.994914619570

  Basis Set: 6-31G
    Blend: 6-31G

  -Total Gradient:
     Atom            X                  Y                   Z
    ------   -----------------  -----------------  -----------------
       1        0.000000000000     0.006575914872    -0.067029497351
       2        0.000000000000    -0.037112081205     0.020378399708
       3        0.000000000000     0.030536166333     0.046651097643

*** Psi4 exiting successfully. Buy a developer a beer!
