                               Psi4 1.3.2 release

  ==> Input File <==

--------------------------------------------------------------------------
# density fitted hartree fock
molecule h2o {
0 1
H 0.0000000000 0.0000000000 0.9500000000
H 0.0000000000 0.8489510083 -0.4263592212
O 0.0000000000 0.0000000000 0.0000000000
}

set scf_type pk
set basis 6-31g
gradient('hf')

--------------------------------------------------------------------------

    Molecular point group: c2v
  Charge       = 0
  Multiplicity = 1
  Basis Set: 6-31G
    Blend: 6-31G

    Orbital Energies [Eh]
    ---------------------

    Doubly Occupied:

       1A1   -20.549362     2A1    -1.346661     1B2    -0.733868
       3A1    -0.538560     1B1    -0.495589

  @RHF Final Energy:   -75.98467899558901

   => Energetics <=

    Nuclear Repulsion Energy =              9.2396922946321638
    One-Electron Energy =                -123.1206622033244287
    Two-Electron Energy =                  37.8962909131032646
    Total Energy =                        -75.9846789955890074

  Dipole Moment: [D]
     X:     0.0000      Y:     0.0000      Z:     2.3994     Total:     2.3994

    Molecular point group: c2v

    Geometry (in Angstrom), charge = 0, multiplicity = 1:

       Center              X                  Y                   Z               Mass
    ------------   -----------------  -----------------  -----------------  -----------------
         H            0.000000000000    -0.808560838817     0.442912698219     1.007825032230
         H           -0.000000000000     0.808560838817     0.442912698219     1.007825032230
         O            0.000000000000     0.000000000000    -0.055815053093    15.994914619570

  Basis Set: 6-31G
    Blend: 6-31G

  -Total Gradient:
     Atom            X                  Y                   Z
    ------   -----------------  -----------------  -----------------
       1        0.000000000000    -0.007541848356    -0.005063371662
       2       -0.000000000000     0.007541848356    -0.005063371662
       3        0.000000000000     0.000000000000     0.010126743325

*** Psi4 exiting successfully. Buy a developer a beer!
