                               Psi4 1.2.1 release

  ==> Input File <==

--------------------------------------------------------------------------
# density-fitted hartree fock energies and gradients with 6-31g
molecule h2o {
0 1
H 0.0000000000 0.0000000000 0.9000000000
H 0.0000000000 0.9866772518 -0.3591211505
O 0.0000000000 0.0000000000 0.0000000000
}

set basis 6-31g

gradient('mp2')
--------------------------------------------------------------------------

    Molecular point group: cs
  Charge       = 0
  Multiplicity = 1
  Basis Set: 6-31G
    Blend: 6-31G
  Basis Set: (6-31G AUX)
    Blend: CC-PVDZ-JKFIT

    Orbital Energies [Eh]
    ---------------------

    Doubly Occupied:

       1Ap   -20.559002     2Ap    -1.346907     3Ap    -0.710181
       4Ap    -0.546230     1App   -0.497991

  @DF-RHF Final Energy:   -75.97374470518616

   => Energetics <=

    Nuclear Repulsion Energy =              9.0664294276505757
    One-Electron Energy =                -122.7597249219864324
    Two-Electron Energy =                  37.7195507891496931
    Total Energy =                        -75.9737447051861636

  Dipole Moment: [D]
     X:    -2.1301      Y:    -1.3817      Z:     0.0000     Total:     2.5390

  Basis Set: (6-31G AUX)
    Blend: CC-PVDZ-RI
    Molecular point group: cs

    Geometry (in Angstrom), charge = 0, multiplicity = 1:

       Center              X                  Y                   Z               Mass
    ------------   -----------------  -----------------  -----------------  -----------------
         H            0.055211929798    -0.869733806051     0.000000000000     1.007825032070
         H           -0.931465322002     0.389387344449     0.000000000000     1.007825032070
         O            0.055211929798     0.030266193949     0.000000000000    15.994914619560

  Basis Set: 6-31G
    Blend: 6-31G
  Basis Set: (6-31G AUX)
    Blend: CC-PVDZ-JKFIT
  Basis Set: (6-31G AUX)
    Blend: CC-PVDZ-JKFIT
	 Reference Energy          =     -75.9737447051861636 [Eh]
	 Singles Energy            =      -0.0000000000000000 [Eh]
	 Same-Spin Energy          =      -0.0304386715765486 [Eh]
	 Opposite-Spin Energy      =      -0.0994043836499785 [Eh]
	 Correlation Energy        =      -0.1298430552265271 [Eh]
	 Total Energy              =     -76.1035877604126938 [Eh]

	 ================> DF-SCS-MP2 Energies <==================
	-----------------------------------------------------------
	 SCS Same-Spin Scale       =       0.3333333333333333 [-]
	 SCS Opposite-Spin Scale   =       1.2000000000000000 [-]
	 SCS Same-Spin Energy      =      -0.0101462238588495 [Eh]
	 SCS Opposite-Spin Energy  =      -0.1192852603799742 [Eh]
	 SCS Correlation Energy    =      -0.1294314842388238 [Eh]
	 SCS Total Energy          =     -76.1031761894249854 [Eh]
	-----------------------------------------------------------

  -Total Gradient:
     Atom            X                  Y                   Z
    ------   -----------------  -----------------  -----------------
       1        0.001632446999     0.094396610683     0.000000000000
       2       -0.053985928063     0.021138310798     0.000000000000
       3        0.052353481064    -0.115534921481    -0.000000000000

*** Psi4 exiting successfully. Buy a developer a beer!
