                               Psi4 1.3.2 release

  ==> Input File <==

--------------------------------------------------------------------------
# density fitted hartree fock
molecule h2o {
0 1
H 0.0000000000 0.0000000000 0.9166666667
H 0.0000000000 0.8457233587 -0.3078181290
O 0.0000000000 0.0000000000 0.0000000000
}

set scf_type pk
set basis 6-31g
gradient('hf')

--------------------------------------------------------------------------

    Molecular point group: cs
  Charge       = 0
  Multiplicity = 1
  Basis Set: 6-31G
    Blend: 6-31G

    Orbital Energies [Eh]
    ---------------------

    Doubly Occupied:

       1Ap   -20.546773     2Ap    -1.377810     3Ap    -0.749120
       4Ap    -0.557250     1App   -0.502019

  @RHF Final Energy:   -75.98099173385729

   => Energetics <=

    Nuclear Repulsion Energy =              9.6776636131267395
    One-Electron Energy =                -123.8513679738512110
    Two-Electron Energy =                  38.1927126268671771
    Total Energy =                        -75.9809917338572944

  Dipole Moment: [D]
     X:    -2.0492      Y:    -1.4495      Z:     0.0000     Total:     2.5100

    Molecular point group: cs

    Geometry (in Angstrom), charge = 0, multiplicity = 1:

       Center              X                  Y                   Z               Mass
    ------------   -----------------  -----------------  -----------------  -----------------
         H            0.047324511263    -0.882597063226     0.000000000000     1.007825032230
         H           -0.798398847437     0.341887732474     0.000000000000     1.007825032230
         O            0.047324511263     0.034069603474     0.000000000000    15.994914619570

  Basis Set: 6-31G
    Blend: 6-31G

  -Total Gradient:
     Atom            X                  Y                   Z
    ------   -----------------  -----------------  -----------------
       1       -0.006456352493     0.041843772001     0.000000000000
       2        0.060738028696    -0.029104776970     0.000000000000
       3       -0.054281676203    -0.012738995031     0.000000000000

*** Psi4 exiting successfully. Buy a developer a beer!
