                               Psi4 1.3.2 release

  ==> Input File <==

--------------------------------------------------------------------------
# density fitted hartree fock
molecule h2o {
0 1
H 0.0000000000 0.0000000000 0.9333333333
H 0.0000000000 0.8371578903 -0.4833333333
O 0.0000000000 0.0000000000 0.0000000000
}

set scf_type pk
set basis 6-31g
gradient('hf')

--------------------------------------------------------------------------

    Molecular point group: cs
  Charge       = 0
  Multiplicity = 1
  Basis Set: 6-31G
    Blend: 6-31G

    Orbital Energies [Eh]
    ---------------------

    Doubly Occupied:

       1Ap   -20.546490     2Ap    -1.343321     3Ap    -0.738474
       4Ap    -0.532385     1App   -0.493803

  @RHF Final Energy:   -75.98295940423635

   => Energetics <=

    Nuclear Repulsion Energy =              9.2367864095054806
    One-Electron Energy =                -123.1305460980334345
    Two-Electron Energy =                  37.9108002842915965
    Total Energy =                        -75.9829594042363539

  Dipole Moment: [D]
     X:    -2.0334      Y:    -1.1357      Z:     0.0000     Total:     2.3290

    Molecular point group: cs

    Geometry (in Angstrom), charge = 0, multiplicity = 1:

       Center              X                  Y                   Z               Mass
    ------------   -----------------  -----------------  -----------------  -----------------
         H            0.046845209608    -0.908152486810     0.000000000000     1.007825032230
         H           -0.790312680692     0.508514179790     0.000000000000     1.007825032230
         O            0.046845209608     0.025180846490     0.000000000000    15.994914619570

  Basis Set: 6-31G
    Blend: 6-31G

  -Total Gradient:
     Atom            X                  Y                   Z
    ------   -----------------  -----------------  -----------------
       1        0.013287681376     0.014417134982     0.000000000000
       2       -0.014274314117     0.023055493705     0.000000000000
       3        0.000986632741    -0.037472628687     0.000000000000

*** Psi4 exiting successfully. Buy a developer a beer!
