                               Psi4 1.3.2 release

  ==> Input File <==

--------------------------------------------------------------------------
# density fitted hartree fock
molecule h2o {
0 1
H 0.0000000000 0.0000000000 0.9833333333
H 0.0000000000 0.9683942905 -0.1707540414
O 0.0000000000 0.0000000000 0.0000000000
}

set scf_type pk
set basis 6-31g
gradient('hf')

--------------------------------------------------------------------------

    Molecular point group: c2v
  Charge       = 0
  Multiplicity = 1
  Basis Set: 6-31G
    Blend: 6-31G

    Orbital Energies [Eh]
    ---------------------

    Doubly Occupied:

       1A1   -20.568982     2A1    -1.347820     1B2    -0.688089
       3A1    -0.565514     1B1    -0.502344

  @RHF Final Energy:   -75.98036934521443

   => Energetics <=

    Nuclear Repulsion Energy =              8.9615911167008502
    One-Electron Energy =                -122.5384239129443102
    Two-Electron Energy =                  37.5964634510290452
    Total Energy =                        -75.9803693452144273

  Dipole Moment: [D]
     X:     0.0000      Y:     0.0000      Z:     2.7136     Total:     2.7136

    Molecular point group: c2v

    Geometry (in Angstrom), charge = 0, multiplicity = 1:

       Center              X                  Y                   Z               Mass
    ------------   -----------------  -----------------  -----------------  -----------------
         H            0.000000000000    -0.753277035744     0.561335947196     1.007825032230
         H           -0.000000000000     0.753277035744     0.561335947196     1.007825032230
         O           -0.000000000000     0.000000000000    -0.070738535657    15.994914619570

  Basis Set: 6-31G
    Blend: 6-31G

  -Total Gradient:
     Atom            X                  Y                   Z
    ------   -----------------  -----------------  -----------------
       1        0.000000000000    -0.007579377109     0.030055525239
       2       -0.000000000000     0.007579377109     0.030055525239
       3        0.000000000000     0.000000000000    -0.060111050478

*** Psi4 exiting successfully. Buy a developer a beer!
