                               Psi4 1.2.1 release

  ==> Input File <==

--------------------------------------------------------------------------
# density-fitted hartree fock energies and gradients with 6-31g
molecule h2o {
0 1
H 0.0000000000 0.0000000000 1.0000000000
H 0.0000000000 1.1276311449 -0.4104241720
O 0.0000000000 0.0000000000 0.0000000000
}

set basis 6-31g

gradient('mp2')
--------------------------------------------------------------------------

    Molecular point group: cs
  Charge       = 0
  Multiplicity = 1
  Basis Set: 6-31G
    Blend: 6-31G
  Basis Set: (6-31G AUX)
    Blend: CC-PVDZ-JKFIT

    Orbital Energies [Eh]
    ---------------------

    Doubly Occupied:

       1Ap   -20.581595     2Ap    -1.295541     3Ap    -0.648828
       4Ap    -0.525919     1App   -0.493375

  @DF-RHF Final Energy:   -75.94441053150334

   => Energetics <=

    Nuclear Repulsion Energy =              8.0543117482227533
    One-Electron Energy =                -120.9069289504136577
    Two-Electron Energy =                  36.9082066706875622
    Total Energy =                        -75.9444105315033369

  Dipole Moment: [D]
     X:    -2.1286      Y:    -1.4109      Z:     0.0000     Total:     2.5538

  Basis Set: (6-31G AUX)
    Blend: CC-PVDZ-RI
    Molecular point group: cs

    Geometry (in Angstrom), charge = 0, multiplicity = 1:

       Center              X                  Y                   Z               Mass
    ------------   -----------------  -----------------  -----------------  -----------------
         H            0.063099348340    -0.967008847962     0.000000000000     1.007825032070
         H           -1.064531796560     0.443415324038     0.000000000000     1.007825032070
         O            0.063099348340     0.032991152038     0.000000000000    15.994914619560

  Basis Set: 6-31G
    Blend: 6-31G
  Basis Set: (6-31G AUX)
    Blend: CC-PVDZ-JKFIT
  Basis Set: (6-31G AUX)
    Blend: CC-PVDZ-JKFIT
	 Reference Energy          =     -75.9444105315033369 [Eh]
	 Singles Energy            =      -0.0000000000000000 [Eh]
	 Same-Spin Energy          =      -0.0327481592389618 [Eh]
	 Opposite-Spin Energy      =      -0.1083575881956176 [Eh]
	 Correlation Energy        =      -0.1411057474345794 [Eh]
	 Total Energy              =     -76.0855162789379165 [Eh]

	 ================> DF-SCS-MP2 Energies <==================
	-----------------------------------------------------------
	 SCS Same-Spin Scale       =       0.3333333333333333 [-]
	 SCS Opposite-Spin Scale   =       1.2000000000000000 [-]
	 SCS Same-Spin Energy      =      -0.0109160530796539 [Eh]
	 SCS Opposite-Spin Energy  =      -0.1300291058347411 [Eh]
	 SCS Correlation Energy    =      -0.1409451589143950 [Eh]
	 SCS Total Energy          =     -76.0853556904177282 [Eh]
	-----------------------------------------------------------

  -Total Gradient:
     Atom            X                  Y                   Z
    ------   -----------------  -----------------  -----------------
       1        0.010963503706    -0.016458858581    -0.000000000000
       2       -0.093338711444     0.043695108510    -0.000000000000
       3        0.082375207738    -0.027236249929     0.000000000000

*** Psi4 exiting successfully. Buy a developer a beer!
