                               Psi4 1.3.2 release

  ==> Input File <==

--------------------------------------------------------------------------
# density fitted hartree fock
molecule h2o {
noreorient
nocom
0 1
H 0.0000000000 0.0000000000 0.9166666667
H 0.0000000000 0.8082903769 -0.4666666667
O 0.0000000000 0.0000000000 0.0000000000
}

set scf_type pk
set basis 6-31g
gradient('hf')

--------------------------------------------------------------------------

    Molecular point group: cs
  Charge       = 0
  Multiplicity = 1
  Basis Set: 6-31G
    Blend: 6-31G

    Orbital Energies [Eh]
    ---------------------

    Doubly Occupied:

       1Ap   -20.542148     2Ap    -1.356630     3Ap    -0.754563
       4Ap    -0.536119     1App   -0.495860

  @RHF Final Energy:   -75.98256433813403

   => Energetics <=

    Nuclear Repulsion Energy =              9.4843665792382232
    One-Electron Energy =                -123.5632215332399113
    Two-Electron Energy =                  38.0962906158676518
    Total Energy =                        -75.9825643381340399

  Dipole Moment: [D]
     X:     0.0000      Y:     2.0145      Z:     1.1431     Total:     2.3163

    Molecular point group: cs

    Geometry (in Angstrom), charge = 0, multiplicity = 1:

       Center              X                  Y                   Z               Mass
    ------------   -----------------  -----------------  -----------------  -----------------
         H            0.000000000000     0.000000000000     0.916666666700     1.007825032230
         H            0.000000000000     0.808290376900    -0.466666666700     1.007825032230
         O            0.000000000000     0.000000000000     0.000000000000    15.994914619570

  Basis Set: 6-31G
    Blend: 6-31G

  -Total Gradient:
     Atom            X                  Y                   Z
    ------   -----------------  -----------------  -----------------
       1        0.000000000000    -0.011563957018    -0.035724622109
       2        0.000000000000    -0.016966497438    -0.003318851057
       3        0.000000000000     0.028530454456     0.039043473166

*** Psi4 exiting successfully. Buy a developer a beer!
