                               Psi4 1.3.2 release

  ==> Input File <==

--------------------------------------------------------------------------
# density fitted hartree fock
molecule h2o {
0 1
H 0.0000000000 0.0000000000 0.9500000000
H 0.0000000000 0.9100900367 -0.2724630711
O 0.0000000000 0.0000000000 0.0000000000
}

set scf_type pk
set basis 6-31g
gradient('hf')

--------------------------------------------------------------------------

    Molecular point group: c2v
  Charge       = 0
  Multiplicity = 1
  Basis Set: 6-31G
    Blend: 6-31G

    Orbital Energies [Eh]
    ---------------------

    Doubly Occupied:

       1A1   -20.557340     2A1    -1.357840     1B2    -0.718084
       3A1    -0.557527     1B1    -0.500735

  @RHF Final Energy:   -75.98470443189137

   => Energetics <=

    Nuclear Repulsion Energy =              9.2596796642899761
    One-Electron Energy =                -123.1057178327353938
    Two-Electron Energy =                  37.8613337365540445
    Total Energy =                        -75.9847044318913731

  Dipole Moment: [D]
     X:    -0.0000      Y:     0.0000      Z:     2.5900     Total:     2.5900

    Molecular point group: c2v

    Geometry (in Angstrom), charge = 0, multiplicity = 1:

       Center              X                  Y                   Z               Mass
    ------------   -----------------  -----------------  -----------------  -----------------
         H            0.000000000000    -0.762017033127     0.503811280394     1.007825032230
         H           -0.000000000000     0.762017033127     0.503811280394     1.007825032230
         O           -0.000000000000     0.000000000000    -0.063489381716    15.994914619570

  Basis Set: 6-31G
    Blend: 6-31G

  -Total Gradient:
     Atom            X                  Y                   Z
    ------   -----------------  -----------------  -----------------
       1       -0.000000000000     0.007619472243     0.005211128432
       2        0.000000000000    -0.007619472243     0.005211128432
       3       -0.000000000000     0.000000000000    -0.010422256864

*** Psi4 exiting successfully. Buy a developer a beer!
