                               Psi4 1.3.2 release

  ==> Input File <==

--------------------------------------------------------------------------
# density fitted hartree fock
molecule h2o {
0 1
H 0.0000000000 0.0000000000 1.0000000000
H 0.0000000000 0.8660254038 -0.5000000000
O 0.0000000000 0.0000000000 0.0000000000
}

set scf_type pk
set basis 6-31g
gradient('hf')

--------------------------------------------------------------------------

    Molecular point group: c2v
  Charge       = 0
  Multiplicity = 1
  Basis Set: 6-31G
    Blend: 6-31G

    Orbital Energies [Eh]
    ---------------------

    Doubly Occupied:

       1A1   -20.555265     2A1    -1.318414     1B2    -0.708045
       3A1    -0.525165     1B1    -0.490271

  @RHF Final Energy:   -75.97787388715011

   => Energetics <=

    Nuclear Repulsion Energy =              8.7723559756909175
    One-Electron Energy =                -122.3061393757220401
    Two-Electron Energy =                  37.5559095128810014
    Total Energy =                        -75.9778738871501247

  Dipole Moment: [D]
     X:     0.0000      Y:     0.0000      Z:     2.3488     Total:     2.3488

    Molecular point group: c2v

    Geometry (in Angstrom), charge = 0, multiplicity = 1:

       Center              X                  Y                   Z               Mass
    ------------   -----------------  -----------------  -----------------  -----------------
         H            0.000000000000    -0.866025403788     0.444042563362     1.007825032230
         H           -0.000000000000     0.866025403788     0.444042563362     1.007825032230
         O            0.000000000000     0.000000000000    -0.055957436645    15.994914619570

  Basis Set: 6-31G
    Blend: 6-31G

  -Total Gradient:
     Atom            X                  Y                   Z
    ------   -----------------  -----------------  -----------------
       1        0.000000000000    -0.052502981540     0.012203378172
       2       -0.000000000000     0.052502981540     0.012203378172
       3       -0.000000000000     0.000000000000    -0.024406756344

*** Psi4 exiting successfully. Buy a developer a beer!
