                               Psi4 1.3.2 release

  ==> Input File <==

--------------------------------------------------------------------------
# density fitted hartree fock
molecule h2o {
0 1
H 0.0000000000 0.0000000000 0.9833333333
H 0.0000000000 0.8723053015 -0.3762757777
O 0.0000000000 0.0000000000 0.0000000000
}

set scf_type pk
set basis 6-31g
gradient('hf')

--------------------------------------------------------------------------

    Molecular point group: cs
  Charge       = 0
  Multiplicity = 1
  Basis Set: 6-31G
    Blend: 6-31G

    Orbital Energies [Eh]
    ---------------------

    Doubly Occupied:

       1Ap   -20.555199     2Ap    -1.341949     3Ap    -0.719001
       4Ap    -0.542310     1App   -0.496271

  @RHF Final Energy:   -75.98408277143824

   => Energetics <=

    Nuclear Repulsion Energy =              9.0889864402881528
    One-Electron Energy =                -122.8366795941495297
    Two-Electron Energy =                  37.7636103824231384
    Total Energy =                        -75.9840827714382385

  Dipole Moment: [D]
     X:    -2.0529      Y:    -1.3793      Z:     0.0000     Total:     2.4732

    Molecular point group: cs

    Geometry (in Angstrom), charge = 0, multiplicity = 1:

       Center              X                  Y                   Z               Mass
    ------------   -----------------  -----------------  -----------------  -----------------
         H            0.048811968643    -0.949363948593     0.000000000000     1.007825032230
         H           -0.823493332857     0.410245162407     0.000000000000     1.007825032230
         O            0.048811968643     0.033969384707     0.000000000000    15.994914619570

  Basis Set: 6-31G
    Blend: 6-31G

  -Total Gradient:
     Atom            X                  Y                   Z
    ------   -----------------  -----------------  -----------------
       1        0.004203714694    -0.034872857146     0.000000000000
       2        0.000849332079     0.004372401032     0.000000000000
       3       -0.005053046773     0.030500456114     0.000000000000

*** Psi4 exiting successfully. Buy a developer a beer!
