                               Psi4 1.3.2 release

  ==> Input File <==

--------------------------------------------------------------------------
# density fitted hartree fock
molecule h2o {
0 1
H 0.0000000000 0.0000000000 1.0000000000
H 0.0000000000 0.8191632536 -0.4113992485
O 0.0000000000 0.0000000000 0.0000000000
}

set scf_type pk
set basis 6-31g
gradient('hf')

--------------------------------------------------------------------------

    Molecular point group: cs
  Charge       = 0
  Multiplicity = 1
  Basis Set: 6-31G
    Blend: 6-31G

    Orbital Energies [Eh]
    ---------------------

    Doubly Occupied:

       1Ap   -20.550688     2Ap    -1.344184     3Ap    -0.728879
       4Ap    -0.537060     1App   -0.495111

  @RHF Final Energy:   -75.98085469120160

   => Energetics <=

    Nuclear Repulsion Energy =              9.1759634344096099
    One-Electron Energy =                -123.0017938773136308
    Two-Electron Energy =                  37.8449757517024281
    Total Energy =                        -75.9808546912015856

  Dipole Moment: [D]
     X:    -2.0075      Y:    -1.3227      Z:     0.0000     Total:     2.4041

    Molecular point group: cs

    Geometry (in Angstrom), charge = 0, multiplicity = 1:

       Center              X                  Y                   Z               Mass
    ------------   -----------------  -----------------  -----------------  -----------------
         H            0.045838275864    -0.967063410739     0.000000000000     1.007825032230
         H           -0.773324977736     0.444335837761     0.000000000000     1.007825032230
         O            0.045838275864     0.032936589261     0.000000000000    15.994914619570

  Basis Set: 6-31G
    Blend: 6-31G

  -Total Gradient:
     Atom            X                  Y                   Z
    ------   -----------------  -----------------  -----------------
       1        0.008558872209    -0.051681344410     0.000000000000
       2        0.039449376017    -0.009363912689     0.000000000000
       3       -0.048008248226     0.061045257099     0.000000000000

*** Psi4 exiting successfully. Buy a developer a beer!
