                               Psi4 1.3.2 release

  ==> Input File <==

--------------------------------------------------------------------------
# density fitted hartree fock
molecule h2o {
0 1
H 0.0000000000 0.0000000000 0.9000000000
H 0.0000000000 0.9568274561 -0.2267722729
O 0.0000000000 0.0000000000 0.0000000000
}

set scf_type pk
set basis 6-31g
gradient('hf')

--------------------------------------------------------------------------

    Molecular point group: cs
  Charge       = 0
  Multiplicity = 1
  Basis Set: 6-31G
    Blend: 6-31G

    Orbital Energies [Eh]
    ---------------------

    Doubly Occupied:

       1Ap   -20.558001     2Ap    -1.368281     3Ap    -0.717214
       4Ap    -0.564803     1App   -0.502999

  @RHF Final Energy:   -75.97920089938928

   => Energetics <=

    Nuclear Repulsion Energy =              9.3669506579779966
    One-Electron Energy =                -123.2697074498363747
    Two-Electron Energy =                  37.9235558924690963
    Total Energy =                        -75.9792008993892836

  Dipole Moment: [D]
     X:    -2.0959      Y:    -1.6105      Z:     0.0000     Total:     2.6432

    Molecular point group: cs

    Geometry (in Angstrom), charge = 0, multiplicity = 1:

       Center              X                  Y                   Z               Mass
    ------------   -----------------  -----------------  -----------------  -----------------
         H            0.053541611754    -0.862327902114     0.000000000000     1.007825032230
         H           -0.903285844346     0.264444370786     0.000000000000     1.007825032230
         O            0.053541611754     0.037672097886     0.000000000000    15.994914619570

  Basis Set: 6-31G
    Blend: 6-31G

  -Total Gradient:
     Atom            X                  Y                   Z
    ------   -----------------  -----------------  -----------------
       1       -0.016621465416     0.072538041357     0.000000000000
       2       -0.030910841642    -0.008308285820     0.000000000000
       3        0.047532307058    -0.064229755538     0.000000000000

*** Psi4 exiting successfully. Buy a developer a beer!
