                               Psi4 1.3.2 release

  ==> Input File <==

--------------------------------------------------------------------------
# density fitted hartree fock
molecule h2o {
noreorient
nocom
0 1
H 0.0000000000 0.0000000000 0.9333333333
H 0.0000000000 0.9579895123 -0.2868032327
O 0.0000000000 0.0000000000 0.0000000000
}

set scf_type pk
set basis 6-31g
gradient('hf')

--------------------------------------------------------------------------

    Molecular point group: cs
  Charge       = 0
  Multiplicity = 1
  Basis Set: 6-31G
    Blend: 6-31G

    Orbital Energies [Eh]
    ---------------------

    Doubly Occupied:

       1Ap   -20.560516     2Ap    -1.350159     3Ap    -0.708800
       4Ap    -0.554800     1App   -0.499870

  @RHF Final Energy:   -75.98220980637981

   => Energetics <=

    Nuclear Repulsion Energy =              9.1103447669316076
    One-Electron Energy =                -122.8368193450253045
    Two-Electron Energy =                  37.7442647717138797
    Total Energy =                        -75.9822098063798137

  Dipole Moment: [D]
     X:     0.0000      Y:     2.1023      Z:     1.5233     Total:     2.5962

    Molecular point group: cs

    Geometry (in Angstrom), charge = 0, multiplicity = 1:

       Center              X                  Y                   Z               Mass
    ------------   -----------------  -----------------  -----------------  -----------------
         H            0.000000000000     0.000000000000     0.933333333300     1.007825032230
         H            0.000000000000     0.957989512300    -0.286803232700     1.007825032230
         O            0.000000000000     0.000000000000     0.000000000000    15.994914619570

  Basis Set: 6-31G
    Blend: 6-31G

  -Total Gradient:
     Atom            X                  Y                   Z
    ------   -----------------  -----------------  -----------------
       1        0.000000000000     0.007336599558    -0.023351729162
       2        0.000000000000     0.044474313700    -0.006166962666
       3        0.000000000000    -0.051810913258     0.029518691828

*** Psi4 exiting successfully. Buy a developer a beer!
