                               Psi4 1.3.1 release

  ==> Input File <==

--------------------------------------------------------------------------
# density fitted hartree fock
molecule h2o {
0 1
H 0.0000000000 0.0000000000 0.9277777778
H 0.0000000000 0.8161920950 -0.3520709031
O 0.0000000000 0.0000000000 0.0000000000
}

set basis 6-31g
energy('hf')

--------------------------------------------------------------------------

    Molecular point group: cs

    Geometry (in Angstrom), charge = 0, multiplicity = 1:

       Center              X                  Y                   Z               Mass
    ------------   -----------------  -----------------  -----------------  -----------------
         H            0.045672017445    -0.895562696833     0.000000000000     1.007825032230
         H           -0.770520077555     0.384285984067     0.000000000000     1.007825032230
         O            0.045672017445     0.032215080967     0.000000000000    15.994914619570

  Charge       = 0
  Multiplicity = 1
  Basis Set: 6-31G
    Blend: 6-31G
  Basis Set: (6-31G AUX)
    Blend: CC-PVDZ-JKFIT

    Orbital Energies [Eh]
    ---------------------

    Doubly Occupied:

       1Ap   -20.544315     2Ap    -1.374220     3Ap    -0.754966
       4Ap    -0.550881     1App   -0.500515

  @DF-RHF Final Energy:   -75.98043542714615

   => Energetics <=

    Nuclear Repulsion Energy =              9.6741723816663221
    One-Electron Energy =                -123.8594190240415429
    Two-Electron Energy =                  38.2048112152290713
    Total Energy =                        -75.9804354271461477

  Dipole Moment: [D]
     X:    -2.0258      Y:    -1.3712      Z:     0.0000     Total:     2.4462

*** Psi4 exiting successfully. Buy a developer a beer!
