                               Psi4 1.3.2 release

  ==> Input File <==

--------------------------------------------------------------------------
# density fitted hartree fock
molecule h2o {
0 1
H 0.0000000000 0.0000000000 0.9666666667
H 0.0000000000 0.8457233587 -0.3078181290
O 0.0000000000 0.0000000000 0.0000000000
}

set scf_type pk
set basis 6-31g
gradient('hf')

--------------------------------------------------------------------------

    Molecular point group: cs
  Charge       = 0
  Multiplicity = 1
  Basis Set: 6-31G
    Blend: 6-31G

    Orbital Energies [Eh]
    ---------------------

    Doubly Occupied:

       1Ap   -20.551489     2Ap    -1.364511     3Ap    -0.733765
       4Ap    -0.553369     1App   -0.500271

  @RHF Final Energy:   -75.98196690150957

   => Energetics <=

    Nuclear Repulsion Energy =              9.4291615638399868
    One-Electron Energy =                -123.4154459195440552
    Two-Electron Energy =                  38.0043174541945206
    Total Energy =                        -75.9819669015095513

  Dipole Moment: [D]
     X:    -2.0400      Y:    -1.4837      Z:     0.0000     Total:     2.5225

    Molecular point group: cs

    Geometry (in Angstrom), charge = 0, multiplicity = 1:

       Center              X                  Y                   Z               Mass
    ------------   -----------------  -----------------  -----------------  -----------------
         H            0.047324511263    -0.929799191394     0.000000000000     1.007825032230
         H           -0.798398847437     0.344685604306     0.000000000000     1.007825032230
         O            0.047324511263     0.036867475306     0.000000000000    15.994914619570

  Basis Set: 6-31G
    Blend: 6-31G

  -Total Gradient:
     Atom            X                  Y                   Z
    ------   -----------------  -----------------  -----------------
       1       -0.003898501922    -0.017754493962     0.000000000000
       2        0.062325464714    -0.027140625426     0.000000000000
       3       -0.058426962793     0.044895119388     0.000000000000

*** Psi4 exiting successfully. Buy a developer a beer!
