                               Psi4 1.2.1 release

  ==> Input File <==

--------------------------------------------------------------------------
# density-fitted hartree fock energies and gradients with 6-31g
molecule h2o {
0 1
H 0.0000000000 0.0000000000 0.9500000000
H 0.0000000000 1.0832885283 -0.1910129954
O 0.0000000000 0.0000000000 0.0000000000
}

set basis 6-31g

gradient('mp2')
--------------------------------------------------------------------------

    Molecular point group: cs
  Charge       = 0
  Multiplicity = 1
  Basis Set: 6-31G
    Blend: 6-31G
  Basis Set: (6-31G AUX)
    Blend: CC-PVDZ-JKFIT

    Orbital Energies [Eh]
    ---------------------

    Doubly Occupied:

       1Ap   -20.576758     2Ap    -1.332979     3Ap    -0.669583
       4Ap    -0.556931     1App   -0.501226

  @DF-RHF Final Energy:   -75.96660622560304

   => Energetics <=

    Nuclear Repulsion Energy =              8.6411289010592931
    One-Electron Energy =                -121.9405163489289237
    Two-Electron Energy =                  37.3327812222665827
    Total Energy =                        -75.9666062256030443

  Dipole Moment: [D]
     X:    -2.0984      Y:    -1.7287      Z:     0.0000     Total:     2.7188

  Basis Set: (6-31G AUX)
    Blend: CC-PVDZ-RI
    Molecular point group: cs

    Geometry (in Angstrom), charge = 0, multiplicity = 1:

       Center              X                  Y                   Z               Mass
    ------------   -----------------  -----------------  -----------------  -----------------
         H            0.060618049181    -0.907529032782     0.000000000000     1.007825032070
         H           -1.022670479119     0.233483962618     0.000000000000     1.007825032070
         O            0.060618049181     0.042470967218     0.000000000000    15.994914619560

  Basis Set: 6-31G
    Blend: 6-31G
  Basis Set: (6-31G AUX)
    Blend: CC-PVDZ-JKFIT
  Basis Set: (6-31G AUX)
    Blend: CC-PVDZ-JKFIT
	 Reference Energy          =     -75.9666062256030443 [Eh]
	 Singles Energy            =      -0.0000000000000000 [Eh]
	 Same-Spin Energy          =      -0.0314503916014408 [Eh]
	 Opposite-Spin Energy      =      -0.1037991397077287 [Eh]
	 Correlation Energy        =      -0.1352495313091694 [Eh]
	 Total Energy              =     -76.1018557569122152 [Eh]

	 ================> DF-SCS-MP2 Energies <==================
	-----------------------------------------------------------
	 SCS Same-Spin Scale       =       0.3333333333333333 [-]
	 SCS Opposite-Spin Scale   =       1.2000000000000000 [-]
	 SCS Same-Spin Energy      =      -0.0104834638671469 [Eh]
	 SCS Opposite-Spin Energy  =      -0.1245589676492744 [Eh]
	 SCS Correlation Energy    =      -0.1350424315164213 [Eh]
	 SCS Total Energy          =     -76.1016486571194690 [Eh]
	-----------------------------------------------------------

  -Total Gradient:
     Atom            X                  Y                   Z
    ------   -----------------  -----------------  -----------------
       1       -0.011277167875     0.035087765728     0.000000000000
       2       -0.072044996361     0.002813857979     0.000000000000
       3        0.083322164236    -0.037901623707    -0.000000000000

*** Psi4 exiting successfully. Buy a developer a beer!
