                               Psi4 1.2.1 release

  ==> Input File <==

--------------------------------------------------------------------------
# density-fitted hartree fock energies and gradients with 6-31g
molecule h2o {
0 1
H 0.0000000000 0.0000000000 0.9500000000
H 0.0000000000 1.1108147002 -0.2976419019
O 0.0000000000 0.0000000000 0.0000000000
}

set basis 6-31g

gradient('mp2')
--------------------------------------------------------------------------

    Molecular point group: cs
  Charge       = 0
  Multiplicity = 1
  Basis Set: 6-31G
    Blend: 6-31G
  Basis Set: (6-31G AUX)
    Blend: CC-PVDZ-JKFIT

    Orbital Energies [Eh]
    ---------------------

    Doubly Occupied:

       1Ap   -20.576973     2Ap    -1.320522     3Ap    -0.666361
       4Ap    -0.542436     1App   -0.497902

  @DF-RHF Final Energy:   -75.95807359509887

   => Energetics <=

    Nuclear Repulsion Energy =              8.4542424909040221
    One-Electron Energy =                -121.6162436789296493
    Two-Electron Energy =                  37.2039275929267603
    Total Energy =                        -75.9580735950988668

  Dipole Moment: [D]
     X:    -2.1263      Y:    -1.5622      Z:     0.0000     Total:     2.6386

  Basis Set: (6-31G AUX)
    Blend: CC-PVDZ-RI
    Molecular point group: cs

    Geometry (in Angstrom), charge = 0, multiplicity = 1:

       Center              X                  Y                   Z               Mass
    ------------   -----------------  -----------------  -----------------  -----------------
         H            0.062158343201    -0.913495713061     0.000000000000     1.007825032070
         H           -1.048656356999     0.334146188839     0.000000000000     1.007825032070
         O            0.062158343201     0.036504286939     0.000000000000    15.994914619560

  Basis Set: 6-31G
    Blend: 6-31G
  Basis Set: (6-31G AUX)
    Blend: CC-PVDZ-JKFIT
  Basis Set: (6-31G AUX)
    Blend: CC-PVDZ-JKFIT
	 Reference Energy          =     -75.9580735950988668 [Eh]
	 Singles Energy            =      -0.0000000000000000 [Eh]
	 Same-Spin Energy          =      -0.0318265250855594 [Eh]
	 Opposite-Spin Energy      =      -0.1051015569466078 [Eh]
	 Correlation Energy        =      -0.1369280820321671 [Eh]
	 Total Energy              =     -76.0950016771310374 [Eh]

	 ================> DF-SCS-MP2 Energies <==================
	-----------------------------------------------------------
	 SCS Same-Spin Scale       =       0.3333333333333333 [-]
	 SCS Opposite-Spin Scale   =       1.2000000000000000 [-]
	 SCS Same-Spin Energy      =      -0.0106088416951865 [Eh]
	 SCS Opposite-Spin Energy  =      -0.1261218683359293 [Eh]
	 SCS Correlation Energy    =      -0.1367307100311158 [Eh]
	 SCS Total Energy          =     -76.0948043051299834 [Eh]
	-----------------------------------------------------------

  -Total Gradient:
     Atom            X                  Y                   Z
    ------   -----------------  -----------------  -----------------
       1       -0.000089412029     0.032733628858    -0.000000000000
       2       -0.087892413666     0.023474232343    -0.000000000000
       3        0.087981825696    -0.056207861201     0.000000000000

*** Psi4 exiting successfully. Buy a developer a beer!
