                               Psi4 1.3.2 release

  ==> Input File <==

--------------------------------------------------------------------------
# density fitted hartree fock
molecule h2o {
noreorient
nocom
0 1
H 0.0000000000 0.0000000000 0.9521306472
H 0.0000000000 0.8857854247 -0.3491947175
O 0.0000000000 0.0000000000 0.0000000000
}

set scf_type pk
set basis 6-31g
set e_convergence 10
gradient('hf')

--------------------------------------------------------------------------

    Molecular point group: cs
  Charge       = 0
  Multiplicity = 1
  Basis Set: 6-31G
    Blend: 6-31G

    Orbital Energies [Eh]
    ---------------------

    Doubly Occupied:

       1Ap   -20.553983     2Ap    -1.351229     3Ap    -0.724836
       4Ap    -0.547926     1App   -0.498150

  @RHF Final Energy:   -75.98534636488273

   => Energetics <=

    Nuclear Repulsion Energy =              9.2286734069951368
    One-Electron Energy =                -123.0757910023099555
    Two-Electron Energy =                  37.8617712304320975
    Total Energy =                        -75.9853463648827159

  Dipole Moment: [D]
     X:     0.0000      Y:     2.0685      Z:     1.4080     Total:     2.5022

    Molecular point group: cs

    Geometry (in Angstrom), charge = 0, multiplicity = 1:

       Center              X                  Y                   Z               Mass
    ------------   -----------------  -----------------  -----------------  -----------------
         H            0.000000000000     0.000000000000     0.952130647200     1.007825032230
         H            0.000000000000     0.885785424700    -0.349194717500     1.007825032230
         O            0.000000000000     0.000000000000     0.000000000000    15.994914619570

  Basis Set: 6-31G
    Blend: 6-31G

  -Total Gradient:
     Atom            X                  Y                   Z
    ------   -----------------  -----------------  -----------------
       1        0.000000000000    -0.000152082781     0.002718927430
       2        0.000000000000     0.002473693913    -0.001138654460
       3        0.000000000000    -0.002321611131    -0.001580272970

*** Psi4 exiting successfully. Buy a developer a beer!
