                               Psi4 1.3.2 release

  ==> Input File <==

--------------------------------------------------------------------------
import psi4
import numpy as np
np.set_printoptions(precision=12, linewidth=400)

basis {
assign one_s_orb
[ one_s_orb ]
cartesian
****
H     0
S   1   1.00
      0.50000000000      1.0000000000
S   1   1.00
      0.40000000000      1.0000000000
S   1   1.00
      0.30000000000      1.0000000000
S   1   1.00
      0.20000000000      1.0000000000
S   1   1.00
      0.10000000000      1.0000000000
S   1   1.00
      0.05000000000      1.0000000000
S   1   1.00
      0.01000000000      1.0000000000
S   1   1.00
      0.00100000000      1.0000000000
****
}

molecule h2o {
symmetry c1
units bohr
0 1
H 0.000000000000 0.000000000000 -0.849220457955
H 0.000000000000 0.000000000000 0.849220457955
}

#set diis false
set scf_type pk
set puream false
set e_convergence 10
set d_convergence 10
set fd_project false
set points 5
e, wfn = hessian('hf', return_wfn=True, dertype='gradient')

print(wfn.energy())
print(np.asarray(wfn.gradient()))
print(np.asarray(wfn.hessian()))

mol = wfn.molecule()
bs = wfn.basisset()
basis = psi4.core.BasisSet.build(mol)
mints = psi4.core.MintsHelper(basis)
D = np.asarray(wfn.Da())
np.save('D16', D)
np.save('T', np.asarray(mints.ao_kinetic()))
np.save('V', np.asarray(mints.ao_potential()))
np.save('S', np.asarray(mints.ao_overlap()))
np.save('G', np.asarray(mints.ao_eri()))
S = mints.ao_overlap()
S.power(-0.5,1e-15)
np.save('A', S)

--------------------------------------------------------------------------

    Molecular point group: c1
  Charge       = 0
  Multiplicity = 1
  Basis Set: ANONYMOUS48FB3AE5
    Blend: ONE_S_ORB
  @RHF Final Energy:    -1.06888692908275
    Total Energy =                         -1.0688869290827516
    Molecular point group: c1
  Basis Set: ANONYMOUS48FB3AE5
    Blend: ONE_S_ORB
  Basis Set: ANONYMOUS48FB3AE5
    Blend: ONE_S_ORB
  @RHF Final Energy:    -1.06888692908267
    Total Energy =                         -1.0688869290826717
  Basis Set: ANONYMOUS48FB3AE5
    Blend: ONE_S_ORB
  Basis Set: ANONYMOUS48FB3AE5
    Blend: ONE_S_ORB
  @RHF Final Energy:    -1.06888365178080
    Total Energy =                         -1.0688836517807960
  Basis Set: ANONYMOUS48FB3AE5
    Blend: ONE_S_ORB
  Basis Set: ANONYMOUS48FB3AE5
    Blend: ONE_S_ORB
  @RHF Final Energy:    -1.06888610977781
    Total Energy =                         -1.0688861097778095
  Basis Set: ANONYMOUS48FB3AE5
    Blend: ONE_S_ORB
  @RHF Final Energy:    -1.06888610979073
    Total Energy =                         -1.0688861097907325
  @RHF Final Energy:    -1.06888365178665
    Total Energy =                         -1.0688836517866482
  @RHF Final Energy:    -1.06888365178069
    Total Energy =                         -1.0688836517806921
  @RHF Final Energy:    -1.06888610978333
    Total Energy =                         -1.0688861097833269
  @RHF Final Energy:    -1.06888610979865
    Total Energy =                         -1.0688861097986497
  @RHF Final Energy:    -1.06888365178657
    Total Energy =                         -1.0688836517865692
  Basis Set: ANONYMOUS48FB3AE5
    Blend: ONE_S_ORB
  @RHF Final Energy:    -1.06808261372444
    Total Energy =                         -1.0680826137244415
  Basis Set: ANONYMOUS48FB3AE5
    Blend: ONE_S_ORB
  Basis Set: ANONYMOUS48FB3AE5
    Blend: ONE_S_ORB
  @RHF Final Energy:    -1.06848826492295
    Total Energy =                         -1.0684882649229483
  Basis Set: ANONYMOUS48FB3AE5
    Blend: ONE_S_ORB
  Basis Set: ANONYMOUS48FB3AE5
    Blend: ONE_S_ORB
  @RHF Final Energy:    -1.06927842567093
    Total Energy =                         -1.0692784256709305
  Basis Set: ANONYMOUS48FB3AE5
    Blend: ONE_S_ORB
    Molecular point group: c1
  Charge       = 0
  Multiplicity = 1
  Basis Set: ANONYMOUS48FB3AE5
    Blend: ONE_S_ORB

    Orbital Energies [Eh]
    ---------------------

    Doubly Occupied:

       1A     -0.539068

  @RHF Final Energy:    -1.06966256923773

   => Energetics <=

    Nuclear Repulsion Energy =              0.5936994986048587
    One-Electron Energy =                  -2.2485875853790915
    Two-Electron Energy =                   0.5852255175364993
    Total Energy =                         -1.0696625692377335

  Dipole Moment: [D]
     X:     0.0000      Y:     0.0000      Z:    -0.0000     Total:     0.0000

    Molecular point group: c1

    Geometry (in Bohr), charge = 0, multiplicity = 1:

       Center              X                  Y                   Z               Mass
    ------------   -----------------  -----------------  -----------------  -----------------
         H            0.000000000000     0.000000000000    -0.842176894498     1.007825032230
         H            0.000000000000     0.000000000000     0.842176894498     1.007825032230

  Basis Set: ANONYMOUS48FB3AE5
    Blend: ONE_S_ORB

  -Total Gradient:
     Atom            X                  Y                   Z
    ------   -----------------  -----------------  -----------------
       1        0.000000000000     0.000000000000    -0.054007327756
       2        0.000000000000     0.000000000000     0.054007327773

*** Psi4 exiting successfully. Buy a developer a beer!
