                               Psi4 1.3.2 release

  ==> Input File <==

--------------------------------------------------------------------------
# density fitted hartree fock
molecule h2o {
noreorient
nocom
0 1
H 0.0000000000 0.0000000000 0.9500000000
H 0.0000000000 0.8489510083 -0.4263592212
O 0.0000000000 0.0000000000 0.0000000000
}

set scf_type pk
set basis 6-31g
gradient('hf')

--------------------------------------------------------------------------

    Molecular point group: cs
  Charge       = 0
  Multiplicity = 1
  Basis Set: 6-31G
    Blend: 6-31G

    Orbital Energies [Eh]
    ---------------------

    Doubly Occupied:

       1Ap   -20.549362     2Ap    -1.346661     3Ap    -0.733868
       4Ap    -0.538560     1App   -0.495589

  @RHF Final Energy:   -75.98467899558881

   => Energetics <=

    Nuclear Repulsion Energy =              9.2396922946321638
    One-Electron Energy =                -123.1206622033241729
    Two-Electron Energy =                  37.8962909131032006
    Total Energy =                        -75.9846789955888084

  Dipole Moment: [D]
     X:     0.0000      Y:     2.0422      Z:     1.2596     Total:     2.3994

    Molecular point group: cs

    Geometry (in Angstrom), charge = 0, multiplicity = 1:

       Center              X                  Y                   Z               Mass
    ------------   -----------------  -----------------  -----------------  -----------------
         H            0.000000000000     0.000000000000     0.950000000000     1.007825032230
         H            0.000000000000     0.848951008300    -0.426359221200     1.007825032230
         O            0.000000000000     0.000000000000     0.000000000000    15.994914619570

  Basis Set: 6-31G
    Blend: 6-31G

  -Total Gradient:
     Atom            X                  Y                   Z
    ------   -----------------  -----------------  -----------------
       1        0.000000000000    -0.008268813800     0.003760841338
       2        0.000000000000    -0.000350226282    -0.009077144417
       3        0.000000000000     0.008619040082     0.005316303079

*** Psi4 exiting successfully. Buy a developer a beer!
