                               Psi4 1.3.2 release

  ==> Input File <==

--------------------------------------------------------------------------
# density fitted hartree fock
molecule h2o {
0 1
H 0.0000000000 0.0000000000 0.9000000000
H 0.0000000000 0.8660254038 -0.5000000000
O 0.0000000000 0.0000000000 0.0000000000
}

set scf_type pk
set basis 6-31g
gradient('hf')

--------------------------------------------------------------------------

    Molecular point group: cs
  Charge       = 0
  Multiplicity = 1
  Basis Set: 6-31G
    Blend: 6-31G

    Orbital Energies [Eh]
    ---------------------

    Doubly Occupied:

       1Ap   -20.546251     2Ap    -1.345768     3Ap    -0.738542
       4Ap    -0.532076     1App   -0.493949

  @RHF Final Energy:   -75.97809349532359

   => Energetics <=

    Nuclear Repulsion Energy =              9.2586673763479688
    One-Electron Energy =                -123.1603514207331216
    Two-Electron Energy =                  37.9235905490615650
    Total Energy =                        -75.9780934953235771

  Dipole Moment: [D]
     X:    -2.0667      Y:    -1.0783      Z:     0.0000     Total:     2.3311

    Molecular point group: cs

    Geometry (in Angstrom), charge = 0, multiplicity = 1:

       Center              X                  Y                   Z               Mass
    ------------   -----------------  -----------------  -----------------  -----------------
         H            0.048460561665    -0.877617025342     0.000000000000     1.007825032230
         H           -0.817564842135     0.522382974658     0.000000000000     1.007825032230
         O            0.048460561665     0.022382974658     0.000000000000    15.994914619570

  Basis Set: 6-31G
    Blend: 6-31G

  -Total Gradient:
     Atom            X                  Y                   Z
    ------   -----------------  -----------------  -----------------
       1        0.013917606771     0.062524444461     0.000000000000
       2       -0.040763634672     0.037998498530     0.000000000000
       3        0.026846027901    -0.100522942990     0.000000000000

*** Psi4 exiting successfully. Buy a developer a beer!
