                               Psi4 1.2.1 release

  ==> Input File <==

--------------------------------------------------------------------------
# density-fitted hartree fock energies and gradients with 6-31g
molecule h2o {
0 1
H 0.0000000000 0.0000000000 0.9500000000
H 0.0000000000 1.1276311449 -0.4104241720
O 0.0000000000 0.0000000000 0.0000000000
}

set basis 6-31g

gradient('mp2')
--------------------------------------------------------------------------

    Molecular point group: cs
  Charge       = 0
  Multiplicity = 1
  Basis Set: 6-31G
    Blend: 6-31G
  Basis Set: (6-31G AUX)
    Blend: CC-PVDZ-JKFIT

    Orbital Energies [Eh]
    ---------------------

    Doubly Occupied:

       1Ap   -20.576332     2Ap    -1.309633     3Ap    -0.662342
       4Ap    -0.528162     1App   -0.494368

  @DF-RHF Final Energy:   -75.94634820805649

   => Energetics <=

    Nuclear Repulsion Energy =              8.2835541343509718
    One-Electron Energy =                -121.3181309012056914
    Two-Electron Energy =                  37.0882285587982210
    Total Energy =                        -75.9463482080564916

  Dipole Moment: [D]
     X:    -2.1447      Y:    -1.3838      Z:     0.0000     Total:     2.5524

  Basis Set: (6-31G AUX)
    Blend: CC-PVDZ-RI
    Molecular point group: cs

    Geometry (in Angstrom), charge = 0, multiplicity = 1:

       Center              X                  Y                   Z               Mass
    ------------   -----------------  -----------------  -----------------  -----------------
         H            0.063099348340    -0.919806719794     0.000000000000     1.007825032070
         H           -1.064531796560     0.440617452206     0.000000000000     1.007825032070
         O            0.063099348340     0.030193280206     0.000000000000    15.994914619560

  Basis Set: 6-31G
    Blend: 6-31G
  Basis Set: (6-31G AUX)
    Blend: CC-PVDZ-JKFIT
  Basis Set: (6-31G AUX)
    Blend: CC-PVDZ-JKFIT
	 Reference Energy          =     -75.9463482080564916 [Eh]
	 Singles Energy            =      -0.0000000000000000 [Eh]
	 Same-Spin Energy          =      -0.0321801406889712 [Eh]
	 Opposite-Spin Energy      =      -0.1064277537624291 [Eh]
	 Correlation Energy        =      -0.1386078944514003 [Eh]
	 Total Energy              =     -76.0849561025078884 [Eh]

	 ================> DF-SCS-MP2 Energies <==================
	-----------------------------------------------------------
	 SCS Same-Spin Scale       =       0.3333333333333333 [-]
	 SCS Opposite-Spin Scale   =       1.2000000000000000 [-]
	 SCS Same-Spin Energy      =      -0.0107267135629904 [Eh]
	 SCS Opposite-Spin Energy  =      -0.1277133045149149 [Eh]
	 SCS Correlation Energy    =      -0.1384400180779053 [Eh]
	 SCS Total Energy          =     -76.0847882261343926 [Eh]
	-----------------------------------------------------------

  -Total Gradient:
     Atom            X                  Y                   Z
    ------   -----------------  -----------------  -----------------
       1        0.009932966955     0.031115633457     0.000000000000
       2       -0.095092707106     0.042979180749    -0.000000000000
       3        0.085159740151    -0.074094814206     0.000000000000

*** Psi4 exiting successfully. Buy a developer a beer!
