                               Psi4 1.3.2 release

  ==> Input File <==

--------------------------------------------------------------------------
# density fitted hartree fock
molecule h2o {
noreorient
nocom
0 1
H 0.0000000000 0.0000000000 0.9166666667
H 0.0000000000 0.8042693763 -0.4039192622
O 0.0000000000 0.0000000000 0.0000000000
}

set scf_type pk
set basis 6-31g
gradient('hf')

--------------------------------------------------------------------------

    Molecular point group: cs
  Charge       = 0
  Multiplicity = 1
  Basis Set: 6-31G
    Blend: 6-31G

    Orbital Energies [Eh]
    ---------------------

    Doubly Occupied:

       1Ap   -20.541828     2Ap    -1.369951     3Ap    -0.760476
       4Ap    -0.544714     1App   -0.498940

  @RHF Final Energy:   -75.98109302416438

   => Energetics <=

    Nuclear Repulsion Energy =              9.6643105309762234
    One-Electron Energy =                -123.8589875756185847
    Two-Electron Energy =                  38.2135840204779882
    Total Energy =                        -75.9810930241643803

  Dipole Moment: [D]
     X:     0.0000      Y:     2.0160      Z:     1.2621     Total:     2.3785

    Molecular point group: cs

    Geometry (in Angstrom), charge = 0, multiplicity = 1:

       Center              X                  Y                   Z               Mass
    ------------   -----------------  -----------------  -----------------  -----------------
         H            0.000000000000     0.000000000000     0.916666666700     1.007825032230
         H            0.000000000000     0.804269376300    -0.403919262200     1.007825032230
         O            0.000000000000     0.000000000000     0.000000000000    15.994914619570

  Basis Set: 6-31G
    Blend: 6-31G

  -Total Gradient:
     Atom            X                  Y                   Z
    ------   -----------------  -----------------  -----------------
       1        0.000000000000    -0.005143961691    -0.037054585881
       2        0.000000000000    -0.058110845820     0.023321529496
       3        0.000000000000     0.063254807511     0.013733056386

*** Psi4 exiting successfully. Buy a developer a beer!
