                               Psi4 1.3.2 release

  ==> Input File <==

--------------------------------------------------------------------------
# density fitted hartree fock
molecule h2o {
0 1
H 0.0000000000 0.0000000000 0.9666666667
H 0.0000000000 0.8570016998 -0.3696744483
O 0.0000000000 0.0000000000 0.0000000000
}

set scf_type pk
set basis 6-31g
gradient('hf')

--------------------------------------------------------------------------

    Molecular point group: cs
  Charge       = 0
  Multiplicity = 1
  Basis Set: 6-31G
    Blend: 6-31G

    Orbital Energies [Eh]
    ---------------------

    Doubly Occupied:

       1Ap   -20.552090     2Ap    -1.350649     3Ap    -0.728964
       4Ap    -0.544750     1App   -0.497370

  @RHF Final Energy:   -75.98467390740402

   => Energetics <=

    Nuclear Repulsion Energy =              9.2485354158240440
    One-Electron Energy =                -123.1187720166481938
    Two-Electron Energy =                  37.8855626934201268
    Total Energy =                        -75.9846739074040158

  Dipole Moment: [D]
     X:    -2.0466      Y:    -1.3764      Z:     0.0000     Total:     2.4664

    Molecular point group: cs

    Geometry (in Angstrom), charge = 0, multiplicity = 1:

       Center              X                  Y                   Z               Mass
    ------------   -----------------  -----------------  -----------------  -----------------
         H            0.047955618320    -0.933260512462     0.000000000000     1.007825032230
         H           -0.809046081480     0.403080602538     0.000000000000     1.007825032230
         O            0.047955618320     0.033406154238     0.000000000000    15.994914619570

  Basis Set: 6-31G
    Blend: 6-31G

  -Total Gradient:
     Atom            X                  Y                   Z
    ------   -----------------  -----------------  -----------------
       1        0.002992512881    -0.019544297855     0.000000000000
       2        0.018234970330    -0.004490354005     0.000000000000
       3       -0.021227483211     0.024034651859     0.000000000000

*** Psi4 exiting successfully. Buy a developer a beer!
