                               Psi4 1.3.2 release

  ==> Input File <==

--------------------------------------------------------------------------
# density fitted hartree fock
molecule h2o {
noreorient
nocom
0 1
H 0.0000000000 0.0000000000 0.9833333333
H 0.0000000000 0.8515916471 -0.4916666667
O 0.0000000000 0.0000000000 0.0000000000
}

set scf_type pk
set basis 6-31g
gradient('hf')

--------------------------------------------------------------------------

    Molecular point group: cs
  Charge       = 0
  Multiplicity = 1
  Basis Set: 6-31G
    Blend: 6-31G

    Orbital Energies [Eh]
    ---------------------

    Doubly Occupied:

       1Ap   -20.552352     2Ap    -1.326256     3Ap    -0.717923
       4Ap    -0.527562     1App   -0.491349

  @RHF Final Energy:   -75.98070864258361

   => Energetics <=

    Nuclear Repulsion Energy =              8.9210399752353844
    One-Electron Energy =                -122.5726113941340287
    Two-Electron Energy =                  37.6708627763150332
    Total Energy =                        -75.9807086425836076

  Dipole Moment: [D]
     X:     0.0000      Y:     2.0291      Z:     1.1715     Total:     2.3430

    Molecular point group: cs

    Geometry (in Angstrom), charge = 0, multiplicity = 1:

       Center              X                  Y                   Z               Mass
    ------------   -----------------  -----------------  -----------------  -----------------
         H            0.000000000000     0.000000000000     0.983333333300     1.007825032230
         H            0.000000000000     0.851591647100    -0.491666666700     1.007825032230
         O            0.000000000000     0.000000000000     0.000000000000    15.994914619570

  Basis Set: 6-31G
    Blend: 6-31G

  -Total Gradient:
     Atom            X                  Y                   Z
    ------   -----------------  -----------------  -----------------
       1        0.000000000000    -0.014876921372     0.038156037913
       2        0.000000000000     0.025605637525    -0.031961810834
       3        0.000000000000    -0.010728716153    -0.006194227079

*** Psi4 exiting successfully. Buy a developer a beer!
