                               Psi4 1.2.1 release

  ==> Input File <==

--------------------------------------------------------------------------
# density-fitted hartree fock energies and gradients with 6-31g
molecule h2o {
0 1
H 0.0000000000 0.0000000000 0.9500000000
H 0.0000000000 1.1591109915 -0.3105828541
O 0.0000000000 0.0000000000 0.0000000000
}

set basis 6-31g

gradient('mp2')
--------------------------------------------------------------------------

    Molecular point group: cs
  Charge       = 0
  Multiplicity = 1
  Basis Set: 6-31G
    Blend: 6-31G
  Basis Set: (6-31G AUX)
    Blend: CC-PVDZ-JKFIT

    Orbital Energies [Eh]
    ---------------------

    Doubly Occupied:

       1Ap   -20.580951     2Ap    -1.314500     3Ap    -0.657358
       4Ap    -0.536432     1App   -0.497565

  @DF-RHF Final Energy:   -75.94681637099846

   => Energetics <=

    Nuclear Repulsion Energy =              8.2930883437986083
    One-Electron Energy =                -121.3061969994491989
    Two-Electron Energy =                  37.0662922846521283
    Total Energy =                        -75.9468163709984765

  Dipole Moment: [D]
     X:    -2.1251      Y:    -1.5597      Z:     0.0000     Total:     2.6360

  Basis Set: (6-31G AUX)
    Blend: CC-PVDZ-RI
    Molecular point group: cs

    Geometry (in Angstrom), charge = 0, multiplicity = 1:

       Center              X                  Y                   Z               Mass
    ------------   -----------------  -----------------  -----------------  -----------------
         H            0.064860879861    -0.914219855574     0.000000000000     1.007825032070
         H           -1.094250111639     0.346362998526     0.000000000000     1.007825032070
         O            0.064860879861     0.035780144426     0.000000000000    15.994914619560

  Basis Set: 6-31G
    Blend: 6-31G
  Basis Set: (6-31G AUX)
    Blend: CC-PVDZ-JKFIT
  Basis Set: (6-31G AUX)
    Blend: CC-PVDZ-JKFIT
	 Reference Energy          =     -75.9468163709984623 [Eh]
	 Singles Energy            =      -0.0000000000000000 [Eh]
	 Same-Spin Energy          =      -0.0322067733575464 [Eh]
	 Opposite-Spin Energy      =      -0.1068819678570449 [Eh]
	 Correlation Energy        =      -0.1390887412145914 [Eh]
	 Total Energy              =     -76.0859051122130552 [Eh]

	 ================> DF-SCS-MP2 Energies <==================
	-----------------------------------------------------------
	 SCS Same-Spin Scale       =       0.3333333333333333 [-]
	 SCS Opposite-Spin Scale   =       1.2000000000000000 [-]
	 SCS Same-Spin Energy      =      -0.0107355911191821 [Eh]
	 SCS Opposite-Spin Energy  =      -0.1282583614284539 [Eh]
	 SCS Correlation Energy    =      -0.1389939525476361 [Eh]
	 SCS Total Energy          =     -76.0858103235460987 [Eh]
	-----------------------------------------------------------

  -Total Gradient:
     Atom            X                  Y                   Z
    ------   -----------------  -----------------  -----------------
       1        0.002087583712     0.033883770439    -0.000000000000
       2       -0.096923756001     0.027681610671    -0.000000000000
       3        0.094836172289    -0.061565381109     0.000000000000

*** Psi4 exiting successfully. Buy a developer a beer!
