                               Psi4 1.3.2 release

  ==> Input File <==

--------------------------------------------------------------------------
# density fitted hartree fock
molecule h2o {
0 1
H 0.0000000000 0.0000000000 0.9666666667
H 0.0000000000 0.8621905611 -0.2581229094
O 0.0000000000 0.0000000000 0.0000000000
}

set scf_type pk
set basis 6-31g
gradient('hf')

--------------------------------------------------------------------------

    Molecular point group: cs
  Charge       = 0
  Multiplicity = 1
  Basis Set: 6-31G
    Blend: 6-31G

    Orbital Energies [Eh]
    ---------------------

    Doubly Occupied:

       1Ap   -20.553978     2Ap    -1.368389     3Ap    -0.727974
       4Ap    -0.559752     1App   -0.501877

  @RHF Final Energy:   -75.98123593183696

   => Energetics <=

    Nuclear Repulsion Energy =              9.4364919372921818
    One-Electron Energy =                -123.4115171604053955
    Two-Electron Energy =                  37.9937892912762507
    Total Energy =                        -75.9812359318369772

  Dipole Moment: [D]
     X:    -2.0489      Y:    -1.5724      Z:     0.0000     Total:     2.5827

    Molecular point group: cs

    Geometry (in Angstrom), charge = 0, multiplicity = 1:

       Center              X                  Y                   Z               Mass
    ------------   -----------------  -----------------  -----------------  -----------------
         H            0.048245973698    -0.927018374291     0.000000000000     1.007825032230
         H           -0.813944587402     0.297771201809     0.000000000000     1.007825032230
         O            0.048245973698     0.039648292409     0.000000000000    15.994914619570

  Basis Set: 6-31G
    Blend: 6-31G

  -Total Gradient:
     Atom            X                  Y                   Z
    ------   -----------------  -----------------  -----------------
       1       -0.009919452746    -0.015189447160     0.000000000000
       2        0.064086616460    -0.030307718992     0.000000000000
       3       -0.054167163715     0.045497166151     0.000000000000

*** Psi4 exiting successfully. Buy a developer a beer!
