                               Psi4 1.3.2 release

  ==> Input File <==

--------------------------------------------------------------------------
# density fitted hartree fock
molecule h2o {
0 1
H 0.0000000000 0.0000000000 0.9166666667
H 0.0000000000 0.9848077530 -0.1736481777
O 0.0000000000 0.0000000000 0.0000000000
}

set scf_type pk
set basis 6-31g
gradient('hf')

--------------------------------------------------------------------------

    Molecular point group: cs
  Charge       = 0
  Multiplicity = 1
  Basis Set: 6-31G
    Blend: 6-31G

    Orbital Energies [Eh]
    ---------------------

    Doubly Occupied:

       1Ap   -20.563738     2Ap    -1.362879     3Ap    -0.701873
       4Ap    -0.568748     1App   -0.503674

  @RHF Final Energy:   -75.97814566140551

   => Energetics <=

    Nuclear Repulsion Energy =              9.2118650185697977
    One-Electron Energy =                -122.9781962483404811
    Two-Electron Energy =                  37.7881855683651793
    Total Energy =                        -75.9781456614055060

  Dipole Moment: [D]
     X:    -2.0872      Y:    -1.7191      Z:     0.0000     Total:     2.7040

    Molecular point group: cs

    Geometry (in Angstrom), charge = 0, multiplicity = 1:

       Center              X                  Y                   Z               Mass
    ------------   -----------------  -----------------  -----------------  -----------------
         H            0.055107317445    -0.875089256676     0.000000000000     1.007825032230
         H           -0.929700435555     0.215225587724     0.000000000000     1.007825032230
         O            0.055107317445     0.041577410024     0.000000000000    15.994914619570

  Basis Set: 6-31G
    Blend: 6-31G

  -Total Gradient:
     Atom            X                  Y                   Z
    ------   -----------------  -----------------  -----------------
       1       -0.021686919009     0.050074940646     0.000000000000
       2       -0.042057438339    -0.012770489604     0.000000000000
       3        0.063744357348    -0.037304451043     0.000000000000

*** Psi4 exiting successfully. Buy a developer a beer!
