                               Psi4 1.3.2 release

  ==> Input File <==

--------------------------------------------------------------------------
# density fitted hartree fock
molecule h2o {
0 1
H 0.0000000000 0.0000000000 0.9833333333
H 0.0000000000 0.9579895123 -0.2868032327
O 0.0000000000 0.0000000000 0.0000000000
}

set scf_type pk
set basis 6-31g
gradient('hf')

--------------------------------------------------------------------------

    Molecular point group: cs
  Charge       = 0
  Multiplicity = 1
  Basis Set: 6-31G
    Blend: 6-31G

    Orbital Energies [Eh]
    ---------------------

    Doubly Occupied:

       1Ap   -20.565508     2Ap    -1.336481     3Ap    -0.694751
       4Ap    -0.551363     1App   -0.498502

  @RHF Final Energy:   -75.98176243908010

   => Energetics <=

    Nuclear Repulsion Energy =              8.8712139496906666
    One-Electron Energy =                -122.4127429665037852
    Two-Electron Energy =                  37.5597665777330150
    Total Energy =                        -75.9817624390801001

  Dipole Moment: [D]
     X:    -2.0937      Y:    -1.5494      Z:     0.0000     Total:     2.6047

    Molecular point group: cs

    Geometry (in Angstrom), charge = 0, multiplicity = 1:

       Center              X                  Y                   Z               Mass
    ------------   -----------------  -----------------  -----------------  -----------------
         H            0.053606637440    -0.944357294325     0.000000000000     1.007825032230
         H           -0.904382874860     0.325779271675     0.000000000000     1.007825032230
         O            0.053606637440     0.038976038975     0.000000000000    15.994914619570

  Basis Set: 6-31G
    Blend: 6-31G

  -Total Gradient:
     Atom            X                  Y                   Z
    ------   -----------------  -----------------  -----------------
       1       -0.005046767513    -0.029725950219     0.000000000000
       2       -0.043404525180     0.007814181800     0.000000000000
       3        0.048451292693     0.021911768419     0.000000000000

*** Psi4 exiting successfully. Buy a developer a beer!
