                               Psi4 1.3.2 release

  ==> Input File <==

--------------------------------------------------------------------------
# density fitted hartree fock
molecule h2o {
0 1
H 0.0000000000 0.0000000000 0.9000000000
H 0.0000000000 0.9396926208 -0.3420201433
O 0.0000000000 0.0000000000 0.0000000000
}

set scf_type pk
set basis 6-31g
gradient('hf')

--------------------------------------------------------------------------

    Molecular point group: cs
  Charge       = 0
  Multiplicity = 1
  Basis Set: 6-31G
    Blend: 6-31G

    Orbital Energies [Eh]
    ---------------------

    Doubly Occupied:

       1Ap   -20.554558     2Ap    -1.356837     3Ap    -0.723994
       4Ap    -0.550629     1App   -0.499270

  @RHF Final Energy:   -75.97988060613473

   => Energetics <=

    Nuclear Repulsion Energy =              9.2769876676712109
    One-Electron Energy =                -123.1431608612826238
    Two-Electron Energy =                  37.8862925874766887
    Total Energy =                        -75.9798806061347278

  Dipole Moment: [D]
     X:    -2.1088      Y:    -1.3975      Z:     0.0000     Total:     2.5298

    Molecular point group: cs

    Geometry (in Angstrom), charge = 0, multiplicity = 1:

       Center              X                  Y                   Z               Mass
    ------------   -----------------  -----------------  -----------------  -----------------
         H            0.052582790293    -0.868776877520     0.000000000000     1.007825032230
         H           -0.887109830507     0.373243265780     0.000000000000     1.007825032230
         O            0.052582790293     0.031223122480     0.000000000000    15.994914619570

  Basis Set: 6-31G
    Blend: 6-31G

  -Total Gradient:
     Atom            X                  Y                   Z
    ------   -----------------  -----------------  -----------------
       1       -0.002593682829     0.068386350126     0.000000000000
       2       -0.045263314652     0.013990375183     0.000000000000
       3        0.047856997481    -0.082376725309     0.000000000000

*** Psi4 exiting successfully. Buy a developer a beer!
