                               Psi4 1.3.2 release

  ==> Input File <==

--------------------------------------------------------------------------
# density fitted hartree fock
molecule h2o {
noreorient
nocom
0 1
H 0.0000000000 0.0000000000 0.9471306471
H 0.0000000000 0.8787173015 -0.3466741457
O 0.0000000000 0.0000000000 0.0000000000
}

set scf_type pk
set basis 6-31g
set e_convergence 10
gradient('hf')

--------------------------------------------------------------------------

    Molecular point group: cs
  Charge       = 0
  Multiplicity = 1
  Basis Set: 6-31G
    Blend: 6-31G

    Orbital Energies [Eh]
    ---------------------

    Doubly Occupied:

       1Ap   -20.552785     2Ap    -1.354569     3Ap    -0.728607
       4Ap    -0.548814     1App   -0.498558

  @RHF Final Energy:   -75.98532593430144

   => Energetics <=

    Nuclear Repulsion Energy =              9.2896381329593289
    One-Electron Energy =                -123.1832620550592026
    Two-Electron Energy =                  37.9082979877984343
    Total Energy =                        -75.9853259343014429

  Dipole Moment: [D]
     X:     0.0000      Y:     2.0652      Z:     1.4075     Total:     2.4992

    Molecular point group: cs

    Geometry (in Angstrom), charge = 0, multiplicity = 1:

       Center              X                  Y                   Z               Mass
    ------------   -----------------  -----------------  -----------------  -----------------
         H            0.000000000000     0.000000000000     0.947130647100     1.007825032230
         H            0.000000000000     0.878717301500    -0.346674145700     1.007825032230
         O            0.000000000000     0.000000000000     0.000000000000    15.994914619570

  Basis Set: 6-31G
    Blend: 6-31G

  -Total Gradient:
     Atom            X                  Y                   Z
    ------   -----------------  -----------------  -----------------
       1        0.000000000000     0.000333745636    -0.002754516202
       2        0.000000000000    -0.005160803607     0.002395785272
       3        0.000000000000     0.004827057971     0.000358730929

*** Psi4 exiting successfully. Buy a developer a beer!
