                               Psi4 1.3.1 release

  ==> Input File <==

--------------------------------------------------------------------------
# density fitted hartree fock
molecule h2o {
0 1
H 0.0000000000 0.0000000000 1.1222222222
H 0.0000000000 1.0028544075 -0.5036524133
O 0.0000000000 0.0000000000 0.0000000000
}

set basis 6-31g
energy('hf')

--------------------------------------------------------------------------

    Molecular point group: c2v

    Geometry (in Angstrom), charge = 0, multiplicity = 1:

       Center              X                  Y                   Z               Mass
    ------------   -----------------  -----------------  -----------------  -----------------
         H            0.000000000000    -0.955142043495     0.523206813120     1.007825032230
         H           -0.000000000000     0.955142043495     0.523206813120     1.007825032230
         O           -0.000000000000     0.000000000000    -0.065933571493    15.994914619570

  Charge       = 0
  Multiplicity = 1
  Basis Set: 6-31G
    Blend: 6-31G
  Basis Set: (6-31G AUX)
    Blend: CC-PVDZ-JKFIT

    Orbital Energies [Eh]
    ---------------------

    Doubly Occupied:

       1A1   -20.580089     2A1    -1.274367     1B2    -0.640542
       3A1    -0.514138     1B1    -0.487651

  @DF-RHF Final Energy:   -75.94033243581551

   => Energetics <=

    Nuclear Repulsion Energy =              7.8217197148113513
    One-Electron Energy =                -120.5305126116247294
    Two-Electron Energy =                  36.7684604609978720
    Total Energy =                        -75.9403324358155061

  Dipole Moment: [D]
     X:    -0.0000      Y:     0.0000      Z:     2.4297     Total:     2.4297

*** Psi4 exiting successfully. Buy a developer a beer!
