                               Psi4 1.3.1 release

  ==> Input File <==

--------------------------------------------------------------------------
# density fitted hartree fock
molecule h2o {
0 1
H 0.0000000000 0.0000000000 0.9277777778
H 0.0000000000 0.8500000000 0.0000000000
O 0.0000000000 0.0000000000 0.0000000000
}

set basis 6-31g
energy('hf')

--------------------------------------------------------------------------

    Molecular point group: cs

    Geometry (in Angstrom), charge = 0, multiplicity = 1:

       Center              X                  Y                   Z               Mass
    ------------   -----------------  -----------------  -----------------  -----------------
         H            0.047563821147    -0.875861711579     0.000000000000     1.007825032230
         H           -0.802436178853     0.051916066221     0.000000000000     1.007825032230
         O            0.047563821147     0.051916066221     0.000000000000    15.994914619570

  Charge       = 0
  Multiplicity = 1
  Basis Set: 6-31G
    Blend: 6-31G
  Basis Set: (6-31G AUX)
    Blend: CC-PVDZ-JKFIT

    Orbital Energies [Eh]
    ---------------------

    Doubly Occupied:

       1Ap   -20.555357     2Ap    -1.418616     3Ap    -0.717523
       4Ap    -0.599298     1App   -0.511729

  @DF-RHF Final Energy:   -75.95353477470631

   => Energetics <=

    Nuclear Repulsion Energy =              9.9640121652126474
    One-Electron Energy =                -124.2300585913994126
    Two-Electron Energy =                  38.3125116514804489
    Total Energy =                        -75.9535347747063128

  Dipole Moment: [D]
     X:    -1.9873      Y:    -1.9986      Z:     0.0000     Total:     2.8185

*** Psi4 exiting successfully. Buy a developer a beer!
