                               Psi4 1.3.2 release

  ==> Input File <==

--------------------------------------------------------------------------
# density fitted hartree fock
molecule h2o {
noreorient
nocom
0 1
H 0.0000000000 0.0000000000 0.9000000000
H 0.0000000000 0.8042693763 -0.4039192622
O 0.0000000000 0.0000000000 0.0000000000
}

set scf_type pk
set basis 6-31g
gradient('hf')

--------------------------------------------------------------------------

    Molecular point group: cs
  Charge       = 0
  Multiplicity = 1
  Basis Set: 6-31G
    Blend: 6-31G

    Orbital Energies [Eh]
    ---------------------

    Doubly Occupied:

       1Ap   -20.540334     2Ap    -1.374798     3Ap    -0.765996
       4Ap    -0.545969     1App   -0.499673

  @RHF Final Energy:   -75.97954087623106

   => Energetics <=

    Nuclear Repulsion Energy =              9.7530085331205143
    One-Electron Energy =                -124.0115583791380942
    Two-Electron Energy =                  38.2790089697865454
    Total Energy =                        -75.9795408762310416

  Dipole Moment: [D]
     X:     0.0000      Y:     2.0204      Z:     1.2462     Total:     2.3738

    Molecular point group: cs

    Geometry (in Angstrom), charge = 0, multiplicity = 1:

       Center              X                  Y                   Z               Mass
    ------------   -----------------  -----------------  -----------------  -----------------
         H            0.000000000000     0.000000000000     0.900000000000     1.007825032230
         H            0.000000000000     0.804269376300    -0.403919262200     1.007825032230
         O            0.000000000000     0.000000000000     0.000000000000    15.994914619570

  Basis Set: 6-31G
    Blend: 6-31G

  -Total Gradient:
     Atom            X                  Y                   Z
    ------   -----------------  -----------------  -----------------
       1        0.000000000000    -0.004506106882    -0.061985032475
       2        0.000000000000    -0.057414185281     0.023792027558
       3        0.000000000000     0.061920292162     0.038193004917

*** Psi4 exiting successfully. Buy a developer a beer!
