                               Psi4 1.3.1 release

  ==> Input File <==

--------------------------------------------------------------------------
# density fitted hartree fock
molecule h2o {
0 1
H 0.0000000000 0.0000000000 1.1611111111
H 0.0000000000 0.8888013809 -0.2660896659
O 0.0000000000 0.0000000000 0.0000000000
}

set basis 6-31g
energy('hf')

--------------------------------------------------------------------------

    Molecular point group: cs

    Geometry (in Angstrom), charge = 0, multiplicity = 1:

       Center              X                  Y                   Z               Mass
    ------------   -----------------  -----------------  -----------------  -----------------
         H            0.049735046961    -1.111028005285     0.000000000000     1.007825032230
         H           -0.839066333939     0.316172771715     0.000000000000     1.007825032230
         O            0.049735046961     0.050083105815     0.000000000000    15.994914619570

  Charge       = 0
  Multiplicity = 1
  Basis Set: 6-31G
    Blend: 6-31G
  Basis Set: (6-31G AUX)
    Blend: CC-PVDZ-JKFIT

    Orbital Energies [Eh]
    ---------------------

    Doubly Occupied:

       1Ap   -20.574040     2Ap    -1.324421     3Ap    -0.672292
       4Ap    -0.539327     1App   -0.497338

  @DF-RHF Final Energy:   -75.95494363129529

   => Energetics <=

    Nuclear Repulsion Energy =              8.5237081340131837
    One-Electron Energy =                -121.7424552061710870
    Two-Electron Energy =                  37.2638034408626098
    Total Energy =                        -75.9549436312952935

  Dipole Moment: [D]
     X:    -2.0434      Y:    -1.6214      Z:     0.0000     Total:     2.6085

*** Psi4 exiting successfully. Buy a developer a beer!
