                               Psi4 1.3.1 release

  ==> Input File <==

--------------------------------------------------------------------------
# density fitted hartree fock
molecule h2o {
0 1
H 0.0000000000 0.0000000000 1.1222222222
H 0.0000000000 1.1203235998 -0.0652514191
O 0.0000000000 0.0000000000 0.0000000000
}

set basis 6-31g
energy('hf')

--------------------------------------------------------------------------

    Molecular point group: c2v

    Geometry (in Angstrom), charge = 0, multiplicity = 1:

       Center              X                  Y                   Z               Mass
    ------------   -----------------  -----------------  -----------------  -----------------
         H            0.000000000000    -0.816274864407     0.683928224252     1.007825032230
         H           -0.000000000000     0.816274864407     0.683928224252     1.007825032230
         O           -0.000000000000     0.000000000000    -0.086187391561    15.994914619570

  Charge       = 0
  Multiplicity = 1
  Basis Set: 6-31G
    Blend: 6-31G
  Basis Set: (6-31G AUX)
    Blend: CC-PVDZ-JKFIT

    Orbital Energies [Eh]
    ---------------------

    Doubly Occupied:

       1A1   -20.601329     2A1    -1.295827     1B2    -0.614213
       3A1    -0.556084     1B1    -0.502553

  @DF-RHF Final Energy:   -75.94066724063512

   => Energetics <=

    Nuclear Repulsion Energy =              7.8688463428050799
    One-Electron Energy =                -120.4790097323510594
    Two-Electron Energy =                  36.6694961489108451
    Total Energy =                        -75.9406672406351220

  Dipole Moment: [D]
     X:    -0.0000      Y:     0.0000      Z:     2.8270     Total:     2.8270

*** Psi4 exiting successfully. Buy a developer a beer!
