                               Psi4 1.3.2 release

  ==> Input File <==

--------------------------------------------------------------------------
# density fitted hartree fock
molecule h2o {
0 1
H 0.0000000000 0.0000000000 0.9666666667
H 0.0000000000 0.8638448856 -0.4338392075
O 0.0000000000 0.0000000000 0.0000000000
}

set scf_type pk
set basis 6-31g
gradient('hf')

--------------------------------------------------------------------------

    Molecular point group: c2v
  Charge       = 0
  Multiplicity = 1
  Basis Set: 6-31G
    Blend: 6-31G

    Orbital Energies [Eh]
    ---------------------

    Doubly Occupied:

       1A1   -20.552380     2A1    -1.338043     1B2    -0.723676
       3A1    -0.536125     1B1    -0.494410

  @RHF Final Energy:   -75.98388898135323

   => Energetics <=

    Nuclear Repulsion Energy =              9.0803872551542391
    One-Electron Energy =                -122.8392840377918844
    Two-Electron Energy =                  37.7750078012844313
    Total Energy =                        -75.9838889813532177

  Dipole Moment: [D]
     X:    -0.0000      Y:     0.0000      Z:     2.4066     Total:     2.4066

    Molecular point group: c2v

    Geometry (in Angstrom), charge = 0, multiplicity = 1:

       Center              X                  Y                   Z               Mass
    ------------   -----------------  -----------------  -----------------  -----------------
         H            0.000000000000    -0.822746116680     0.450683096435     1.007825032230
         H           -0.000000000000     0.822746116680     0.450683096435     1.007825032230
         O           -0.000000000000     0.000000000000    -0.056794264551    15.994914619570

  Basis Set: 6-31G
    Blend: 6-31G

  -Total Gradient:
     Atom            X                  Y                   Z
    ------   -----------------  -----------------  -----------------
       1        0.000000000000    -0.022767371116     0.003048863446
       2       -0.000000000000     0.022767371116     0.003048863446
       3       -0.000000000000     0.000000000000    -0.006097726891

*** Psi4 exiting successfully. Buy a developer a beer!
