                               Psi4 1.3.1 release

  ==> Input File <==

--------------------------------------------------------------------------
# density fitted hartree fock
molecule h2o {
0 1
H 0.0000000000 0.0000000000 1.1222222222
H 0.0000000000 0.8034791246 -0.4638888889
O 0.0000000000 0.0000000000 0.0000000000
}

set basis 6-31g
energy('hf')

--------------------------------------------------------------------------

    Molecular point group: cs

    Geometry (in Angstrom), charge = 0, multiplicity = 1:

       Center              X                  Y                   Z               Mass
    ------------   -----------------  -----------------  -----------------  -----------------
         H            0.044960632210    -1.085383576411     0.000000000000     1.007825032230
         H           -0.758518492390     0.500727534689     0.000000000000     1.007825032230
         O            0.044960632210     0.036838645789     0.000000000000    15.994914619570

  Charge       = 0
  Multiplicity = 1
  Basis Set: 6-31G
    Blend: 6-31G
  Basis Set: (6-31G AUX)
    Blend: CC-PVDZ-JKFIT

    Orbital Energies [Eh]
    ---------------------

    Doubly Occupied:

       1Ap   -20.558346     2Ap    -1.315841     3Ap    -0.695467
       4Ap    -0.519868     1App   -0.489364

  @DF-RHF Final Energy:   -75.95959396392166

   => Energetics <=

    Nuclear Repulsion Energy =              8.6329405090774003
    One-Electron Energy =                -122.0272866816480217
    Two-Electron Energy =                  37.4347522086489590
    Total Energy =                        -75.9595939639216624

  Dipole Moment: [D]
     X:    -1.9571      Y:    -1.3194      Z:     0.0000     Total:     2.3603

*** Psi4 exiting successfully. Buy a developer a beer!
