                               Psi4 1.3.2 release

  ==> Input File <==

--------------------------------------------------------------------------
# density fitted hartree fock
molecule h2o {
noreorient
nocom
0 1
H 0.0000000000 0.0000000000 0.9496306472
H 0.0000000000 0.8877440999 -0.3510414304
O 0.0000000000 0.0000000000 0.0000000000
}

set scf_type pk
set basis 6-31g
set e_convergence 10
gradient('hf')

--------------------------------------------------------------------------

    Molecular point group: cs
  Charge       = 0
  Multiplicity = 1
  Basis Set: 6-31G
    Blend: 6-31G

    Orbital Energies [Eh]
    ---------------------

    Doubly Occupied:

       1Ap   -20.553935     2Ap    -1.351169     3Ap    -0.724931
       4Ap    -0.547811     1App   -0.498119

  @RHF Final Energy:   -75.98533274360898

   => Energetics <=

    Nuclear Repulsion Energy =              9.2286144592935955
    One-Electron Energy =                -123.0759639557541760
    Two-Electron Energy =                  37.8620167528515879
    Total Energy =                        -75.9853327436089927

  Dipole Moment: [D]
     X:     0.0000      Y:     2.0702      Z:     1.4034     Total:     2.5011

    Molecular point group: cs

    Geometry (in Angstrom), charge = 0, multiplicity = 1:

       Center              X                  Y                   Z               Mass
    ------------   -----------------  -----------------  -----------------  -----------------
         H            0.000000000000     0.000000000000     0.949630647200     1.007825032230
         H            0.000000000000     0.887744099900    -0.351041430400     1.007825032230
         O            0.000000000000     0.000000000000     0.000000000000    15.994914619570

  Basis Set: 6-31G
    Blend: 6-31G

  -Total Gradient:
     Atom            X                  Y                   Z
    ------   -----------------  -----------------  -----------------
       1        0.000000000000    -0.000255396497    -0.000067090134
       2        0.000000000000     0.005056021913    -0.002272508096
       3        0.000000000000    -0.004800625416     0.002339598229

*** Psi4 exiting successfully. Buy a developer a beer!
