                               Psi4 1.3.2 release

  ==> Input File <==

--------------------------------------------------------------------------
# density fitted hartree fock
molecule h2o {
noreorient
nocom
0 1
H 0.0000000000 0.0000000000 0.9333333333
H 0.0000000000 0.8781570530 -0.2629029633
O 0.0000000000 0.0000000000 0.0000000000
}

set scf_type pk
set basis 6-31g
gradient('hf')

--------------------------------------------------------------------------

    Molecular point group: cs
  Charge       = 0
  Multiplicity = 1
  Basis Set: 6-31G
    Blend: 6-31G

    Orbital Energies [Eh]
    ---------------------

    Doubly Occupied:

       1Ap   -20.552409     2Ap    -1.371973     3Ap    -0.732809
       4Ap    -0.561200     1App   -0.502338

  @RHF Final Energy:   -75.98285616452245

   => Energetics <=

    Nuclear Repulsion Energy =              9.5106762220242675
    One-Electron Energy =                -123.5456086111480971
    Two-Electron Energy =                  38.0520762246013788
    Total Energy =                        -75.9828561645224454

  Dipole Moment: [D]
     X:     0.0000      Y:     2.0628      Z:     1.5478     Total:     2.5789

    Molecular point group: cs

    Geometry (in Angstrom), charge = 0, multiplicity = 1:

       Center              X                  Y                   Z               Mass
    ------------   -----------------  -----------------  -----------------  -----------------
         H            0.000000000000     0.000000000000     0.933333333300     1.007825032230
         H            0.000000000000     0.878157053000    -0.262902963300     1.007825032230
         O            0.000000000000     0.000000000000     0.000000000000    15.994914619570

  Basis Set: 6-31G
    Blend: 6-31G

  -Total Gradient:
     Atom            X                  Y                   Z
    ------   -----------------  -----------------  -----------------
       1        0.000000000000     0.011132670594    -0.022391214523
       2        0.000000000000    -0.039654373469     0.023703897957
       3        0.000000000000     0.028521702875    -0.001312683433

*** Psi4 exiting successfully. Buy a developer a beer!
