                               Psi4 1.3.2 release

  ==> Input File <==

--------------------------------------------------------------------------
# density fitted hartree fock
molecule h2o {
0 1
H 0.0000000000 0.0000000000 0.9500000000
H 0.0000000000 0.9355673654 -0.1649657688
O 0.0000000000 0.0000000000 0.0000000000
}

set scf_type pk
set basis 6-31g
gradient('hf')

--------------------------------------------------------------------------

    Molecular point group: c2v
  Charge       = 0
  Multiplicity = 1
  Basis Set: 6-31G
    Blend: 6-31G

    Orbital Energies [Eh]
    ---------------------

    Doubly Occupied:

       1A1   -20.562160     2A1    -1.365589     1B2    -0.705920
       3A1    -0.570532     1B1    -0.503939

  @RHF Final Energy:   -75.98152746089590

   => Energetics <=

    Nuclear Repulsion Energy =              9.2760329101142069
    One-Electron Energy =                -123.0988392105491300
    Two-Electron Energy =                  37.8412788395390152
    Total Energy =                        -75.9815274608959044

  Dipole Moment: [D]
     X:    -0.0000      Y:     0.0000      Z:     2.7019     Total:     2.7019

    Molecular point group: c2v

    Geometry (in Angstrom), charge = 0, multiplicity = 1:

       Center              X                  Y                   Z               Mass
    ------------   -----------------  -----------------  -----------------  -----------------
         H            0.000000000000    -0.727742220982     0.542307610016     1.007825032230
         H           -0.000000000000     0.727742220982     0.542307610016     1.007825032230
         O           -0.000000000000     0.000000000000    -0.068340619196    15.994914619570

  Basis Set: 6-31G
    Blend: 6-31G

  -Total Gradient:
     Atom            X                  Y                   Z
    ------   -----------------  -----------------  -----------------
       1       -0.000000000000     0.020222977310     0.011610402091
       2        0.000000000000    -0.020222977310     0.011610402091
       3        0.000000000000     0.000000000000    -0.023220804181

*** Psi4 exiting successfully. Buy a developer a beer!
