                               Psi4 1.3.1 release

  ==> Input File <==

--------------------------------------------------------------------------
# density fitted hartree fock
molecule h2o {
0 1
H 0.0000000000 0.0000000000 1.2000000000
H 0.0000000000 0.9381941874 -0.5416666667
O 0.0000000000 0.0000000000 0.0000000000
}

set basis 6-31g
energy('hf')

--------------------------------------------------------------------------

    Molecular point group: cs

    Geometry (in Angstrom), charge = 0, multiplicity = 1:

       Center              X                  Y                   Z               Mass
    ------------   -----------------  -----------------  -----------------  -----------------
         H            0.052498941801    -1.163161354211     0.000000000000     1.007825032230
         H           -0.885695245599     0.578505312489     0.000000000000     1.007825032230
         O            0.052498941801     0.036838645789     0.000000000000    15.994914619570

  Charge       = 0
  Multiplicity = 1
  Basis Set: 6-31G
    Blend: 6-31G
  Basis Set: (6-31G AUX)
    Blend: CC-PVDZ-JKFIT

    Orbital Energies [Eh]
    ---------------------

    Doubly Occupied:

       1Ap   -20.579156     2Ap    -1.267248     3Ap    -0.635467
       4Ap    -0.504664     1App   -0.484858

  @DF-RHF Final Energy:   -75.92801569929992

   => Energetics <=

    Nuclear Repulsion Energy =              7.7031111665764431
    One-Electron Energy =                -120.3194482030869494
    Two-Electron Energy =                  36.6883213372105672
    Total Energy =                        -75.9280156992999338

  Dipole Moment: [D]
     X:    -2.0086      Y:    -1.2356      Z:     0.0000     Total:     2.3582

*** Psi4 exiting successfully. Buy a developer a beer!
