                               Psi4 1.3.2 release

  ==> Input File <==

--------------------------------------------------------------------------
# density fitted hartree fock
molecule h2o {
0 1
H 0.0000000000 0.0000000000 0.9333333333
H 0.0000000000 0.9568274561 -0.2267722729
O 0.0000000000 0.0000000000 0.0000000000
}

set scf_type pk
set basis 6-31g
gradient('hf')

--------------------------------------------------------------------------

    Molecular point group: cs
  Charge       = 0
  Multiplicity = 1
  Basis Set: 6-31G
    Blend: 6-31G

    Orbital Energies [Eh]
    ---------------------

    Doubly Occupied:

       1Ap   -20.561429     2Ap    -1.357821     3Ap    -0.707644
       4Ap    -0.562592     1App   -0.501958

  @RHF Final Energy:   -75.98223085085976

   => Energetics <=

    Nuclear Repulsion Energy =              9.1928724745622450
    One-Electron Energy =                -122.9673195683183593
    Two-Electron Energy =                  37.7922162428963588
    Total Energy =                        -75.9822308508597501

  Dipole Moment: [D]
     X:    -2.0915      Y:    -1.6278      Z:     0.0000     Total:     2.6503

    Molecular point group: cs

    Geometry (in Angstrom), charge = 0, multiplicity = 1:

       Center              X                  Y                   Z               Mass
    ------------   -----------------  -----------------  -----------------  -----------------
         H            0.053541611754    -0.893795987528     0.000000000000     1.007825032230
         H           -0.903285844346     0.266309618672     0.000000000000     1.007825032230
         O            0.053541611754     0.039537345772     0.000000000000    15.994914619570

  Basis Set: 6-31G
    Blend: 6-31G

  -Total Gradient:
     Atom            X                  Y                   Z
    ------   -----------------  -----------------  -----------------
       1       -0.014601720869     0.025461717180     0.000000000000
       2       -0.030359184740    -0.007047927333     0.000000000000
       3        0.044960905609    -0.018413789847     0.000000000000

*** Psi4 exiting successfully. Buy a developer a beer!
