                               Psi4 1.3.2 release

  ==> Input File <==

--------------------------------------------------------------------------
# density fitted hartree fock
molecule h2o {
noreorient
nocom
0 1
H 0.0000000000 0.0000000000 0.9521306472
H 0.0000000000 0.8856939754 -0.3494266036
O 0.0000000000 0.0000000000 0.0000000000
}

set scf_type pk
set basis 6-31g
set e_convergence 10
gradient('hf')

--------------------------------------------------------------------------

    Molecular point group: cs
  Charge       = 0
  Multiplicity = 1
  Basis Set: 6-31G
    Blend: 6-31G

    Orbital Energies [Eh]
    ---------------------

    Doubly Occupied:

       1Ap   -20.553971     2Ap    -1.351212     3Ap    -0.724860
       4Ap    -0.547898     1App   -0.498142

  @RHF Final Energy:   -75.98534628722511

   => Energetics <=

    Nuclear Repulsion Energy =              9.2286434604639034
    One-Electron Energy =                -123.0758136339802604
    Two-Electron Energy =                  37.8618238862912406
    Total Energy =                        -75.9853462872251271

  Dipole Moment: [D]
     X:     0.0000      Y:     2.0684      Z:     1.4075     Total:     2.5019

    Molecular point group: cs

    Geometry (in Angstrom), charge = 0, multiplicity = 1:

       Center              X                  Y                   Z               Mass
    ------------   -----------------  -----------------  -----------------  -----------------
         H            0.000000000000     0.000000000000     0.952130647200     1.007825032230
         H            0.000000000000     0.885693975400    -0.349426603600     1.007825032230
         O            0.000000000000     0.000000000000     0.000000000000    15.994914619570

  Basis Set: 6-31G
    Blend: 6-31G

  -Total Gradient:
     Atom            X                  Y                   Z
    ------   -----------------  -----------------  -----------------
       1        0.000000000000    -0.000177638780     0.002729037175
       2        0.000000000000     0.002473421152    -0.001166785038
       3        0.000000000000    -0.002295782372    -0.001562252137

*** Psi4 exiting successfully. Buy a developer a beer!
