                               Psi4 1.2.1 release

  ==> Input File <==

--------------------------------------------------------------------------
# density-fitted hartree fock energies and gradients with 6-31g
molecule h2o {
0 1
H 0.0000000000 0.0000000000 0.9000000000
H 0.0000000000 1.1325289160 -0.1996954043
O 0.0000000000 0.0000000000 0.0000000000
}

set basis 6-31g

gradient('mp2')
--------------------------------------------------------------------------

    Molecular point group: cs
  Charge       = 0
  Multiplicity = 1
  Basis Set: 6-31G
    Blend: 6-31G
  Basis Set: (6-31G AUX)
    Blend: CC-PVDZ-JKFIT

    Orbital Energies [Eh]
    ---------------------

    Doubly Occupied:

       1Ap   -20.575696     2Ap    -1.342129     3Ap    -0.673782
       4Ap    -0.553260     1App   -0.502033

  @DF-RHF Final Energy:   -75.95306666320599

   => Energetics <=

    Nuclear Repulsion Energy =              8.7202512430654942
    One-Electron Energy =                -122.0528361426038941
    Two-Electron Energy =                  37.3795182363324230
    Total Energy =                        -75.9530666632059877

  Dipole Moment: [D]
     X:    -2.1042      Y:    -1.7090      Z:     0.0000     Total:     2.7108

  Basis Set: (6-31G AUX)
    Blend: CC-PVDZ-RI
    Molecular point group: cs

    Geometry (in Angstrom), charge = 0, multiplicity = 1:

       Center              X                  Y                   Z               Mass
    ------------   -----------------  -----------------  -----------------  -----------------
         H            0.063373415056    -0.860812749960     0.000000000000     1.007825032070
         H           -1.069155500944     0.238882654340     0.000000000000     1.007825032070
         O            0.063373415056     0.039187250040     0.000000000000    15.994914619560

  Basis Set: 6-31G
    Blend: 6-31G
  Basis Set: (6-31G AUX)
    Blend: CC-PVDZ-JKFIT
  Basis Set: (6-31G AUX)
    Blend: CC-PVDZ-JKFIT
	 Reference Energy          =     -75.9530666632059877 [Eh]
	 Singles Energy            =      -0.0000000000000000 [Eh]
	 Same-Spin Energy          =      -0.0312441823972935 [Eh]
	 Opposite-Spin Energy      =      -0.1036139326331646 [Eh]
	 Correlation Energy        =      -0.1348581150304581 [Eh]
	 Total Energy              =     -76.0879247782364416 [Eh]

	 ================> DF-SCS-MP2 Energies <==================
	-----------------------------------------------------------
	 SCS Same-Spin Scale       =       0.3333333333333333 [-]
	 SCS Opposite-Spin Scale   =       1.2000000000000000 [-]
	 SCS Same-Spin Energy      =      -0.0104147274657645 [Eh]
	 SCS Opposite-Spin Energy  =      -0.1243367191597976 [Eh]
	 SCS Correlation Energy    =      -0.1347514466255620 [Eh]
	 SCS Total Energy          =     -76.0878181098315451 [Eh]
	-----------------------------------------------------------

  -Total Gradient:
     Atom            X                  Y                   Z
    ------   -----------------  -----------------  -----------------
       1       -0.011269020046     0.103240952294     0.000000000000
       2       -0.088103232472     0.006579691717     0.000000000000
       3        0.099372252517    -0.109820644010    -0.000000000000

*** Psi4 exiting successfully. Buy a developer a beer!
