                               Psi4 1.3.2 release

  ==> Input File <==

--------------------------------------------------------------------------
# density fitted hartree fock
molecule h2o {
noreorient
nocom
0 1
H 0.0000000000 0.0000000000 0.9471306471
H 0.0000000000 0.8831858174 -0.3489716005
O 0.0000000000 0.0000000000 0.0000000000
}

set scf_type pk
set basis 6-31g
set e_convergence 10
gradient('hf')

--------------------------------------------------------------------------

    Molecular point group: cs
  Charge       = 0
  Multiplicity = 1
  Basis Set: 6-31G
    Blend: 6-31G

    Orbital Energies [Eh]
    ---------------------

    Doubly Occupied:

       1Ap   -20.553236     2Ap    -1.353187     3Ap    -0.727152
       4Ap    -0.548390     1App   -0.498375

  @RHF Final Energy:   -75.98535254862512

   => Energetics <=

    Nuclear Repulsion Energy =              9.2650897964371843
    One-Electron Energy =                -123.1402063178838659
    Two-Electron Energy =                  37.8897639728215623
    Total Energy =                        -75.9853525486251158

  Dipole Moment: [D]
     X:     0.0000      Y:     2.0680      Z:     1.4043     Total:     2.4997

    Molecular point group: cs

    Geometry (in Angstrom), charge = 0, multiplicity = 1:

       Center              X                  Y                   Z               Mass
    ------------   -----------------  -----------------  -----------------  -----------------
         H            0.000000000000     0.000000000000     0.947130647100     1.007825032230
         H            0.000000000000     0.883185817400    -0.348971600500     1.007825032230
         O            0.000000000000     0.000000000000     0.000000000000    15.994914619570

  Basis Set: 6-31G
    Blend: 6-31G

  -Total Gradient:
     Atom            X                  Y                   Z
    ------   -----------------  -----------------  -----------------
       1        0.000000000000     0.000076615550    -0.002821664910
       2        0.000000000000     0.000078201394     0.000051263050
       3        0.000000000000    -0.000154816944     0.002770401860

*** Psi4 exiting successfully. Buy a developer a beer!
