                               Psi4 1.3.1 release

  ==> Input File <==

--------------------------------------------------------------------------
# density fitted hartree fock
molecule h2o {
0 1
H 0.0000000000 0.0000000000 1.2000000000
H 0.0000000000 0.9260565286 -0.2772431250
O 0.0000000000 0.0000000000 0.0000000000
}

set basis 6-31g
energy('hf')

--------------------------------------------------------------------------

    Molecular point group: cs

    Geometry (in Angstrom), charge = 0, multiplicity = 1:

       Center              X                  Y                   Z               Mass
    ------------   -----------------  -----------------  -----------------  -----------------
         H            0.051819749528    -1.148364890629     0.000000000000     1.007825032230
         H           -0.874236779072     0.328878234371     0.000000000000     1.007825032230
         O            0.051819749528     0.051635109371     0.000000000000    15.994914619570

  Charge       = 0
  Multiplicity = 1
  Basis Set: 6-31G
    Blend: 6-31G
  Basis Set: (6-31G AUX)
    Blend: CC-PVDZ-JKFIT

    Orbital Energies [Eh]
    ---------------------

    Doubly Occupied:

       1Ap   -20.581236     2Ap    -1.307896     3Ap    -0.654532
       4Ap    -0.532983     1App   -0.496172

  @DF-RHF Final Energy:   -75.94670727710766

   => Energetics <=

    Nuclear Repulsion Energy =              8.2107582109297788
    One-Electron Energy =                -121.1692765948548924
    Two-Electron Energy =                  37.0118111068174542
    Total Energy =                        -75.9467072771076630

  Dipole Moment: [D]
     X:    -2.0568      Y:    -1.6064      Z:     0.0000     Total:     2.6098

*** Psi4 exiting successfully. Buy a developer a beer!
