                               Psi4 1.3.2 release

  ==> Input File <==

--------------------------------------------------------------------------
# density fitted hartree fock
molecule h2o {
noreorient
nocom
0 1
H 0.0000000000 0.0000000000 0.9496306472
H 0.0000000000 0.8785356629 -0.3471341934
O 0.0000000000 0.0000000000 0.0000000000
}

set scf_type pk
set basis 6-31g
set e_convergence 10
gradient('hf')

--------------------------------------------------------------------------

    Molecular point group: cs
  Charge       = 0
  Multiplicity = 1
  Basis Set: 6-31G
    Blend: 6-31G

    Orbital Energies [Eh]
    ---------------------

    Doubly Occupied:

       1Ap   -20.552998     2Ap    -1.353865     3Ap    -0.727903
       4Ap    -0.548573     1App   -0.498459

  @RHF Final Energy:   -75.98533243089298

   => Energetics <=

    Nuclear Repulsion Energy =              9.2773639822941014
    One-Electron Energy =                -123.1617967926956112
    Two-Electron Energy =                  37.8991003795085319
    Total Energy =                        -75.9853324308929814

  Dipole Moment: [D]
     X:     0.0000      Y:     2.0646      Z:     1.4084     Total:     2.4992

    Molecular point group: cs

    Geometry (in Angstrom), charge = 0, multiplicity = 1:

       Center              X                  Y                   Z               Mass
    ------------   -----------------  -----------------  -----------------  -----------------
         H            0.000000000000     0.000000000000     0.949630647200     1.007825032230
         H            0.000000000000     0.878535662900    -0.347134193400     1.007825032230
         O            0.000000000000     0.000000000000     0.000000000000    15.994914619570

  Basis Set: 6-31G
    Blend: 6-31G

  -Total Gradient:
     Atom            X                  Y                   Z
    ------   -----------------  -----------------  -----------------
       1        0.000000000000     0.000178458334     0.000097681726
       2        0.000000000000    -0.005238407580     0.002262742556
       3        0.000000000000     0.005059949246    -0.002360424281

*** Psi4 exiting successfully. Buy a developer a beer!
