                               Psi4 1.3.2 release

  ==> Input File <==

--------------------------------------------------------------------------
# density fitted hartree fock
molecule h2o {
noreorient
nocom
0 1
H 0.0000000000 0.0000000000 0.9333333333
H 0.0000000000 0.9730448706 -0.2306158707
O 0.0000000000 0.0000000000 0.0000000000
}

set scf_type pk
set basis 6-31g
gradient('hf')

--------------------------------------------------------------------------

    Molecular point group: cs
  Charge       = 0
  Multiplicity = 1
  Basis Set: 6-31G
    Blend: 6-31G

    Orbital Energies [Eh]
    ---------------------

    Doubly Occupied:

       1Ap   -20.563058     2Ap    -1.353890     3Ap    -0.703172
       4Ap    -0.561212     1App   -0.501563

  @RHF Final Energy:   -75.98112818585392

   => Energetics <=

    Nuclear Repulsion Energy =              9.1180306140528948
    One-Electron Energy =                -122.8325282144158876
    Two-Electron Energy =                  37.7333694145090703
    Total Energy =                        -75.9811281858539189

  Dipole Moment: [D]
     X:     0.0000      Y:     2.0972      Z:     1.6251     Total:     2.6531

    Molecular point group: cs

    Geometry (in Angstrom), charge = 0, multiplicity = 1:

       Center              X                  Y                   Z               Mass
    ------------   -----------------  -----------------  -----------------  -----------------
         H            0.000000000000     0.000000000000     0.933333333300     1.007825032230
         H            0.000000000000     0.973044870600    -0.230615870700     1.007825032230
         O            0.000000000000     0.000000000000     0.000000000000    15.994914619570

  Basis Set: 6-31G
    Blend: 6-31G

  -Total Gradient:
     Atom            X                  Y                   Z
    ------   -----------------  -----------------  -----------------
       1        0.000000000000     0.013800847420    -0.025579204875
       2        0.000000000000     0.043673302289     0.002886848314
       3        0.000000000000    -0.057474149709     0.022692356561

*** Psi4 exiting successfully. Buy a developer a beer!
