                               Psi4 1.3.2 release

  ==> Input File <==

--------------------------------------------------------------------------
# density fitted hartree fock
molecule h2o {
noreorient
nocom
0 1
H 0.0000000000 0.0000000000 0.9000000000
H 0.0000000000 0.8863269777 -0.1562833599
O 0.0000000000 0.0000000000 0.0000000000
}

set scf_type pk
set basis 6-31g
gradient('hf')

--------------------------------------------------------------------------

    Molecular point group: cs
  Charge       = 0
  Multiplicity = 1
  Basis Set: 6-31G
    Blend: 6-31G

    Orbital Energies [Eh]
    ---------------------

    Doubly Occupied:

       1Ap   -20.551867     2Ap    -1.395411     3Ap    -0.734321
       4Ap    -0.577975     1App   -0.506938

  @RHF Final Energy:   -75.97408182862198

   => Energetics <=

    Nuclear Repulsion Energy =              9.7913680720571943
    One-Electron Energy =                -123.9978744657298364
    Two-Electron Energy =                  38.2324245650506640
    Total Energy =                        -75.9740818286219763

  Dipole Moment: [D]
     X:     0.0000      Y:     2.0520      Z:     1.7218     Total:     2.6787

    Molecular point group: cs

    Geometry (in Angstrom), charge = 0, multiplicity = 1:

       Center              X                  Y                   Z               Mass
    ------------   -----------------  -----------------  -----------------  -----------------
         H            0.000000000000     0.000000000000     0.900000000000     1.007825032230
         H            0.000000000000     0.886326977700    -0.156283359900     1.007825032230
         O            0.000000000000     0.000000000000     0.000000000000    15.994914619570

  Basis Set: 6-31G
    Blend: 6-31G

  -Total Gradient:
     Atom            X                  Y                   Z
    ------   -----------------  -----------------  -----------------
       1        0.000000000000     0.028259149609    -0.074569953702
       2        0.000000000000    -0.068529918732     0.040778766201
       3        0.000000000000     0.040270769123     0.033791187501

*** Psi4 exiting successfully. Buy a developer a beer!
