                               Psi4 1.3.2 release

  ==> Input File <==

--------------------------------------------------------------------------
# density fitted hartree fock
molecule h2o {
0 1
H 0.0000000000 0.0000000000 0.9000000000
H 0.0000000000 0.9519808279 -0.1678599051
O 0.0000000000 0.0000000000 0.0000000000
}

set scf_type pk
set basis 6-31g
gradient('hf')

--------------------------------------------------------------------------

    Molecular point group: cs
  Charge       = 0
  Multiplicity = 1
  Basis Set: 6-31G
    Blend: 6-31G

    Orbital Energies [Eh]
    ---------------------

    Doubly Occupied:

       1Ap   -20.558665     2Ap    -1.376378     3Ap    -0.715404
       4Ap    -0.572717     1App   -0.504966

  @RHF Final Energy:   -75.97776276051381

   => Energetics <=

    Nuclear Repulsion Energy =              9.4530960016106960
    One-Electron Energy =                -123.4054557743116192
    Two-Electron Energy =                  37.9745970121871181
    Total Energy =                        -75.9777627605138122

  Dipole Moment: [D]
     X:    -2.0786      Y:    -1.7142      Z:     0.0000     Total:     2.6943

    Molecular point group: cs

    Geometry (in Angstrom), charge = 0, multiplicity = 1:

       Center              X                  Y                   Z               Mass
    ------------   -----------------  -----------------  -----------------  -----------------
         H            0.053270406864    -0.859031317025     0.000000000000     1.007825032230
         H           -0.898710421036     0.208828588075     0.000000000000     1.007825032230
         O            0.053270406864     0.040968682975     0.000000000000    15.994914619570

  Basis Set: 6-31G
    Blend: 6-31G

  -Total Gradient:
     Atom            X                  Y                   Z
    ------   -----------------  -----------------  -----------------
       1       -0.024665897309     0.074818794526     0.000000000000
       2       -0.013539474359    -0.020931694567     0.000000000000
       3        0.038205371668    -0.053887099960     0.000000000000

*** Psi4 exiting successfully. Buy a developer a beer!
