                               Psi4 1.3.2 release

  ==> Input File <==

--------------------------------------------------------------------------
# density fitted hartree fock
molecule h2o {
noreorient
nocom
0 1
H 0.0000000000 0.0000000000 0.9666666667
H 0.0000000000 0.8082903769 -0.4666666667
O 0.0000000000 0.0000000000 0.0000000000
}

set scf_type pk
set basis 6-31g
gradient('hf')

--------------------------------------------------------------------------

    Molecular point group: cs
  Charge       = 0
  Multiplicity = 1
  Basis Set: 6-31G
    Blend: 6-31G

    Orbital Energies [Eh]
    ---------------------

    Doubly Occupied:

       1Ap   -20.546490     2Ap    -1.343321     3Ap    -0.738474
       4Ap    -0.532385     1App   -0.493803

  @RHF Final Energy:   -75.98295940423455

   => Energetics <=

    Nuclear Repulsion Energy =              9.2367864087643916
    One-Electron Energy =                -123.1305460967410994
    Two-Electron Energy =                  37.9108002837421552
    Total Energy =                        -75.9829594042345491

  Dipole Moment: [D]
     X:     0.0000      Y:     2.0002      Z:     1.1931     Total:     2.3290

    Molecular point group: cs

    Geometry (in Angstrom), charge = 0, multiplicity = 1:

       Center              X                  Y                   Z               Mass
    ------------   -----------------  -----------------  -----------------  -----------------
         H            0.000000000000     0.000000000000     0.966666666700     1.007825032230
         H            0.000000000000     0.808290376900    -0.466666666700     1.007825032230
         O            0.000000000000     0.000000000000     0.000000000000    15.994914619570

  Basis Set: 6-31G
    Blend: 6-31G

  -Total Gradient:
     Atom            X                  Y                   Z
    ------   -----------------  -----------------  -----------------
       1        0.000000000000    -0.012829486194     0.023889665569
       2        0.000000000000    -0.019129445749    -0.004298902193
       3        0.000000000000     0.031958931943    -0.019590763376

*** Psi4 exiting successfully. Buy a developer a beer!
