                               Psi4 1.3.2 release

  ==> Input File <==

--------------------------------------------------------------------------
# density fitted hartree fock
molecule h2o {
noreorient
nocom
0 1
H 0.0000000000 0.0000000000 0.9500000000
H 0.0000000000 0.7938566201 -0.4583333333
O 0.0000000000 0.0000000000 0.0000000000
}

set scf_type pk
set basis 6-31g
gradient('hf')

--------------------------------------------------------------------------

    Molecular point group: cs
  Charge       = 0
  Multiplicity = 1
  Basis Set: 6-31G
    Blend: 6-31G

    Orbital Energies [Eh]
    ---------------------

    Doubly Occupied:

       1Ap   -20.543581     2Ap    -1.352263     3Ap    -0.749130
       4Ap    -0.534852     1App   -0.495160

  @RHF Final Energy:   -75.98265719675334

   => Energetics <=

    Nuclear Repulsion Energy =              9.4018290910008595
    One-Electron Energy =                -123.4190016085410662
    Two-Electron Energy =                  38.0345153207868591
    Total Energy =                        -75.9826571967533368

  Dipole Moment: [D]
     X:     0.0000      Y:     1.9926      Z:     1.1899     Total:     2.3208

    Molecular point group: cs

    Geometry (in Angstrom), charge = 0, multiplicity = 1:

       Center              X                  Y                   Z               Mass
    ------------   -----------------  -----------------  -----------------  -----------------
         H            0.000000000000     0.000000000000     0.950000000000     1.007825032230
         H            0.000000000000     0.793856620100    -0.458333333300     1.007825032230
         O            0.000000000000     0.000000000000     0.000000000000    15.994914619570

  Basis Set: 6-31G
    Blend: 6-31G

  -Total Gradient:
     Atom            X                  Y                   Z
    ------   -----------------  -----------------  -----------------
       1        0.000000000000    -0.011809473507     0.006752505097
       2        0.000000000000    -0.037459243255     0.007494830155
       3        0.000000000000     0.049268716762    -0.014247335251

*** Psi4 exiting successfully. Buy a developer a beer!
