                               Psi4 1.3.1 release

  ==> Input File <==

--------------------------------------------------------------------------
# density fitted hartree fock
molecule h2o {
0 1
H 0.0000000000 0.0000000000 0.9277777778
H 0.0000000000 0.8034791246 -0.4638888889
O 0.0000000000 0.0000000000 0.0000000000
}

set basis 6-31g
energy('hf')

--------------------------------------------------------------------------

    Molecular point group: c2v

    Geometry (in Angstrom), charge = 0, multiplicity = 1:

       Center              X                  Y                   Z               Mass
    ------------   -----------------  -----------------  -----------------  -----------------
         H            0.000000000000    -0.803479124631     0.411972822663     1.007825032230
         H           -0.000000000000     0.803479124631     0.411972822663     1.007825032230
         O           -0.000000000000     0.000000000000    -0.051916066219    15.994914619570

  Charge       = 0
  Multiplicity = 1
  Basis Set: 6-31G
    Blend: 6-31G
  Basis Set: (6-31G AUX)
    Blend: CC-PVDZ-JKFIT

    Orbital Energies [Eh]
    ---------------------

    Doubly Occupied:

       1A1   -20.542635     2A1    -1.355001     1B2    -0.752742
       3A1    -0.535709     1B1    -0.495608

  @DF-RHF Final Energy:   -75.98296118770132

   => Energetics <=

    Nuclear Repulsion Energy =              9.4552339857920398
    One-Electron Energy =                -123.5129959603195289
    Two-Electron Energy =                  38.0748007868261737
    Total Energy =                        -75.9829611877013207

  Dipole Moment: [D]
     X:    -0.0000      Y:     0.0000      Z:     2.3177     Total:     2.3177

*** Psi4 exiting successfully. Buy a developer a beer!
