                               Psi4 1.3.2 release

  ==> Input File <==

--------------------------------------------------------------------------
# density fitted hartree fock
molecule h2o {
0 1
H 0.0000000000 0.0000000000 0.9666666667
H 0.0000000000 0.8927079897 -0.3249191362
O 0.0000000000 0.0000000000 0.0000000000
}

set scf_type pk
set basis 6-31g
gradient('hf')

--------------------------------------------------------------------------

    Molecular point group: cs
  Charge       = 0
  Multiplicity = 1
  Basis Set: 6-31G
    Blend: 6-31G

    Orbital Energies [Eh]
    ---------------------

    Doubly Occupied:

       1Ap   -20.556371     2Ap    -1.349707     3Ap    -0.718782
       4Ap    -0.549887     1App   -0.498546

  @RHF Final Energy:   -75.98503329951953

   => Energetics <=

    Nuclear Repulsion Energy =              9.1726671570758853
    One-Electron Energy =                -122.9688160817611333
    Two-Electron Energy =                  37.8111156251657192
    Total Energy =                        -75.9850332995195288

  Dipole Moment: [D]
     X:    -2.0690      Y:    -1.4616      Z:     0.0000     Total:     2.5331

    Molecular point group: cs

    Geometry (in Angstrom), charge = 0, multiplicity = 1:

       Center              X                  Y                   Z               Mass
    ------------   -----------------  -----------------  -----------------  -----------------
         H            0.049953650775    -0.930756119921     0.000000000000     1.007825032230
         H           -0.842754338925     0.360829682979     0.000000000000     1.007825032230
         O            0.049953650775     0.035910546779     0.000000000000    15.994914619570

  Basis Set: 6-31G
    Blend: 6-31G

  -Total Gradient:
     Atom            X                  Y                   Z
    ------   -----------------  -----------------  -----------------
       1       -0.001926865219    -0.016967350337     0.000000000000
       2        0.000180772095    -0.002152297552     0.000000000000
       3        0.001746093124     0.019119647889     0.000000000000

*** Psi4 exiting successfully. Buy a developer a beer!
