                               Psi4 1.3.1 release

  ==> Input File <==

--------------------------------------------------------------------------
# density fitted hartree fock
molecule h2o {
0 1
H 0.0000000000 0.0000000000 1.1611111111
H 0.0000000000 0.8708366560 -0.5027777778
O 0.0000000000 0.0000000000 0.0000000000
}

set basis 6-31g
energy('hf')

--------------------------------------------------------------------------

    Molecular point group: cs

    Geometry (in Angstrom), charge = 0, multiplicity = 1:

       Center              X                  Y                   Z               Mass
    ------------   -----------------  -----------------  -----------------  -----------------
         H            0.048729787005    -1.124272465311     0.000000000000     1.007825032230
         H           -0.822106868995     0.539616423589     0.000000000000     1.007825032230
         O            0.048729787005     0.036838645789     0.000000000000    15.994914619570

  Charge       = 0
  Multiplicity = 1
  Basis Set: 6-31G
    Blend: 6-31G
  Basis Set: (6-31G AUX)
    Blend: CC-PVDZ-JKFIT

    Orbital Energies [Eh]
    ---------------------

    Doubly Occupied:

       1Ap   -20.568841     2Ap    -1.288919     3Ap    -0.664230
       4Ap    -0.512115     1App   -0.486547

  @DF-RHF Final Energy:   -75.94836065689651

   => Energetics <=

    Nuclear Repulsion Energy =              8.1378113532730261
    One-Electron Energy =                -121.1310283623754174
    Two-Electron Energy =                  37.0448563522058834
    Total Energy =                        -75.9483606568965115

  Dipole Moment: [D]
     X:    -1.9905      Y:    -1.2764      Z:     0.0000     Total:     2.3646

*** Psi4 exiting successfully. Buy a developer a beer!
