                               Psi4 1.3.2 release

  ==> Input File <==

--------------------------------------------------------------------------
# density fitted hartree fock
molecule h2o {
noreorient
nocom
0 1
H 0.0000000000 0.0000000000 1.0000000000
H 0.0000000000 0.9420230204 -0.2820231788
O 0.0000000000 0.0000000000 0.0000000000
}

set scf_type pk
set basis 6-31g
gradient('hf')

--------------------------------------------------------------------------

    Molecular point group: cs
  Charge       = 0
  Multiplicity = 1
  Basis Set: 6-31G
    Blend: 6-31G

    Orbital Energies [Eh]
    ---------------------

    Doubly Occupied:

       1Ap   -20.565508     2Ap    -1.336481     3Ap    -0.694751
       4Ap    -0.551363     1App   -0.498502

  @RHF Final Energy:   -75.98176243907957

   => Energetics <=

    Nuclear Repulsion Energy =              8.8712139496935798
    One-Electron Energy =                -122.4127429665041120
    Two-Electron Energy =                  37.5597665777309615
    Total Energy =                        -75.9817624390795743

  Dipole Moment: [D]
     X:     0.0000      Y:     2.0848      Z:     1.5614     Total:     2.6047

    Molecular point group: cs

    Geometry (in Angstrom), charge = 0, multiplicity = 1:

       Center              X                  Y                   Z               Mass
    ------------   -----------------  -----------------  -----------------  -----------------
         H            0.000000000000     0.000000000000     1.000000000000     1.007825032230
         H            0.000000000000     0.942023020400    -0.282023178800     1.007825032230
         O            0.000000000000     0.000000000000     0.000000000000    15.994914619570

  Basis Set: 6-31G
    Blend: 6-31G

  -Total Gradient:
     Atom            X                  Y                   Z
    ------   -----------------  -----------------  -----------------
       1        0.000000000000     0.004962653925     0.043822212525
       2        0.000000000000     0.029924577776    -0.003690748263
       3        0.000000000000    -0.034887231701    -0.040131464262

*** Psi4 exiting successfully. Buy a developer a beer!
