                               Psi4 1.3.2 release

  ==> Input File <==

--------------------------------------------------------------------------
# density fitted hartree fock
molecule h2o {
noreorient
nocom
0 1
H 0.0000000000 0.0000000000 0.9000000000
H 0.0000000000 0.9083695334 -0.3306194719
O 0.0000000000 0.0000000000 0.0000000000
}

set scf_type pk
set basis 6-31g
gradient('hf')

--------------------------------------------------------------------------

    Molecular point group: cs
  Charge       = 0
  Multiplicity = 1
  Basis Set: 6-31G
    Blend: 6-31G

    Orbital Energies [Eh]
    ---------------------

    Doubly Occupied:

       1Ap   -20.551489     2Ap    -1.364511     3Ap    -0.733765
       4Ap    -0.553369     1App   -0.500271

  @RHF Final Energy:   -75.98196690151195

   => Energetics <=

    Nuclear Repulsion Energy =              9.4291615640578321
    One-Electron Energy =                -123.4154459199372127
    Two-Electron Energy =                  38.0043174543674240
    Total Energy =                        -75.9819669015119530

  Dipole Moment: [D]
     X:     0.0000      Y:     2.0919      Z:     1.4095     Total:     2.5225

    Molecular point group: cs

    Geometry (in Angstrom), charge = 0, multiplicity = 1:

       Center              X                  Y                   Z               Mass
    ------------   -----------------  -----------------  -----------------  -----------------
         H            0.000000000000     0.000000000000     0.900000000000     1.007825032230
         H            0.000000000000     0.908369533400    -0.330619471900     1.007825032230
         O            0.000000000000     0.000000000000     0.000000000000    15.994914619570

  Basis Set: 6-31G
    Blend: 6-31G

  -Total Gradient:
     Atom            X                  Y                   Z
    ------   -----------------  -----------------  -----------------
       1        0.000000000000     0.004187281062    -0.067849419869
       2        0.000000000000     0.018017133100    -0.002409001064
       3        0.000000000000    -0.022204414162     0.070258420933

*** Psi4 exiting successfully. Buy a developer a beer!
