                               Psi4 1.3.2 release

  ==> Input File <==

--------------------------------------------------------------------------
# density fitted hartree fock
molecule h2o {
noreorient
nocom
0 1
H 0.0000000000 0.0000000000 0.9666666667
H 0.0000000000 0.8863269777 -0.1562833599
O 0.0000000000 0.0000000000 0.0000000000
}

set scf_type pk
set basis 6-31g
gradient('hf')

--------------------------------------------------------------------------

    Molecular point group: cs
  Charge       = 0
  Multiplicity = 1
  Basis Set: 6-31G
    Blend: 6-31G

    Orbital Energies [Eh]
    ---------------------

    Doubly Occupied:

       1Ap   -20.558665     2Ap    -1.376378     3Ap    -0.715404
       4Ap    -0.572717     1App   -0.504966

  @RHF Final Energy:   -75.97776276051057

   => Energetics <=

    Nuclear Repulsion Energy =              9.4530960014783325
    One-Electron Energy =                -123.4054557740652740
    Two-Electron Energy =                  37.9745970120763658
    Total Energy =                        -75.9777627605105863

  Dipole Moment: [D]
     X:     0.0000      Y:     2.0491      Z:     1.7494     Total:     2.6943

    Molecular point group: cs

    Geometry (in Angstrom), charge = 0, multiplicity = 1:

       Center              X                  Y                   Z               Mass
    ------------   -----------------  -----------------  -----------------  -----------------
         H            0.000000000000     0.000000000000     0.966666666700     1.007825032230
         H            0.000000000000     0.886326977700    -0.156283359900     1.007825032230
         O            0.000000000000     0.000000000000     0.000000000000    15.994914619570

  Basis Set: 6-31G
    Blend: 6-31G

  -Total Gradient:
     Atom            X                  Y                   Z
    ------   -----------------  -----------------  -----------------
       1        0.000000000000     0.022964800142     0.009699028743
       2        0.000000000000    -0.069398940820     0.037283314234
       3        0.000000000000     0.046434140678    -0.046982342977

*** Psi4 exiting successfully. Buy a developer a beer!
