                               Psi4 1.3.2 release

  ==> Input File <==

--------------------------------------------------------------------------
# density fitted hartree fock
molecule h2o {
0 1
H 0.0000000000 0.0000000000 0.9000000000
H 0.0000000000 0.8863269777 -0.1562833599
O 0.0000000000 0.0000000000 0.0000000000
}

set scf_type pk
set basis 6-31g
gradient('hf')

--------------------------------------------------------------------------

    Molecular point group: c2v
  Charge       = 0
  Multiplicity = 1
  Basis Set: 6-31G
    Blend: 6-31G

    Orbital Energies [Eh]
    ---------------------

    Doubly Occupied:

       1A1   -20.551867     2A1    -1.395411     1B2    -0.734321
       3A1    -0.577975     1B1    -0.506938

  @RHF Final Energy:   -75.97408182862192

   => Energetics <=

    Nuclear Repulsion Energy =              9.7913680720572014
    One-Electron Energy =                -123.9978744657297938
    Two-Electron Energy =                  38.2324245650506640
    Total Energy =                        -75.9740818286219337

  Dipole Moment: [D]
     X:    -0.0000      Y:     0.0000      Z:     2.6787     Total:     2.6787

    Molecular point group: c2v

    Geometry (in Angstrom), charge = 0, multiplicity = 1:

       Center              X                  Y                   Z               Mass
    ------------   -----------------  -----------------  -----------------  -----------------
         H            0.000000000000    -0.689439998803     0.513765104214     1.007825032230
         H           -0.000000000000     0.689439998803     0.513765104214     1.007825032230
         O           -0.000000000000     0.000000000000    -0.064743744500    15.994914619570

  Basis Set: 6-31G
    Blend: 6-31G

  -Total Gradient:
     Atom            X                  Y                   Z
    ------   -----------------  -----------------  -----------------
       1       -0.000000000000     0.075288529892    -0.026284877775
       2        0.000000000000    -0.075288529892    -0.026284877775
       3        0.000000000000     0.000000000000     0.052569755549

*** Psi4 exiting successfully. Buy a developer a beer!
