                               Psi4 1.3.2 release

  ==> Input File <==

--------------------------------------------------------------------------
# density fitted hartree fock
molecule h2o {
0 1
H 0.0000000000 0.0000000000 0.9000000000
H 0.0000000000 0.8457233587 -0.3078181290
O 0.0000000000 0.0000000000 0.0000000000
}

set scf_type pk
set basis 6-31g
gradient('hf')

--------------------------------------------------------------------------

    Molecular point group: c2v
  Charge       = 0
  Multiplicity = 1
  Basis Set: 6-31G
    Blend: 6-31G

    Orbital Energies [Eh]
    ---------------------

    Doubly Occupied:

       1A1   -20.545182     2A1    -1.382762     1B2    -0.754390
       3A1    -0.558494     1B1    -0.502670

  @RHF Final Energy:   -75.97928912996174

   => Energetics <=

    Nuclear Repulsion Energy =              9.7664871295663680
    One-Electron Energy =                -124.0045570605806375
    Two-Electron Energy =                  38.2587808010525237
    Total Energy =                        -75.9792891299617423

  Dipole Moment: [D]
     X:    -0.0000      Y:     0.0000      Z:     2.5056     Total:     2.5056

    Molecular point group: c2v

    Geometry (in Angstrom), charge = 0, multiplicity = 1:

       Center              X                  Y                   Z               Mass
    ------------   -----------------  -----------------  -----------------  -----------------
         H            0.000000000000    -0.737236839861     0.458446231936     1.007825032230
         H           -0.000000000000     0.737236839861     0.458446231936     1.007825032230
         O           -0.000000000000     0.000000000000    -0.057772560775    15.994914619570

  Basis Set: 6-31G
    Blend: 6-31G

  -Total Gradient:
     Atom            X                  Y                   Z
    ------   -----------------  -----------------  -----------------
       1       -0.000000000000     0.058900978689    -0.032252674317
       2        0.000000000000    -0.058900978689    -0.032252674317
       3       -0.000000000000     0.000000000000     0.064505348633

*** Psi4 exiting successfully. Buy a developer a beer!
