                               Psi4 1.3.2 release

  ==> Input File <==

--------------------------------------------------------------------------
# density fitted hartree fock
molecule h2o {
noreorient
nocom
0 1
H 0.0000000000 0.0000000000 0.9333333333
H 0.0000000000 0.8570016998 -0.3696744483
O 0.0000000000 0.0000000000 0.0000000000
}

set scf_type pk
set basis 6-31g
gradient('hf')

--------------------------------------------------------------------------

    Molecular point group: cs
  Charge       = 0
  Multiplicity = 1
  Basis Set: 6-31G
    Blend: 6-31G

    Orbital Energies [Eh]
    ---------------------

    Doubly Occupied:

       1Ap   -20.549003     2Ap    -1.359414     3Ap    -0.739164
       4Ap    -0.547246     1App   -0.498537

  @RHF Final Energy:   -75.98477270713053

   => Energetics <=

    Nuclear Repulsion Energy =              9.4109174371901148
    One-Electron Energy =                -123.4046509983940609
    Two-Electron Energy =                  38.0089608540734147
    Total Energy =                        -75.9847727071305314

  Dipole Moment: [D]
     X:     0.0000      Y:     2.0542      Z:     1.3511     Total:     2.4587

    Molecular point group: cs

    Geometry (in Angstrom), charge = 0, multiplicity = 1:

       Center              X                  Y                   Z               Mass
    ------------   -----------------  -----------------  -----------------  -----------------
         H            0.000000000000     0.000000000000     0.933333333300     1.007825032230
         H            0.000000000000     0.857001699800    -0.369674448300     1.007825032230
         O            0.000000000000     0.000000000000     0.000000000000    15.994914619570

  Basis Set: 6-31G
    Blend: 6-31G

  -Total Gradient:
     Atom            X                  Y                   Z
    ------   -----------------  -----------------  -----------------
       1        0.000000000000    -0.001706087554    -0.017861772715
       2        0.000000000000    -0.017076714077     0.005508129649
       3        0.000000000000     0.018782801631     0.012353643066

*** Psi4 exiting successfully. Buy a developer a beer!
