                               Psi4 1.3.1 release

  ==> Input File <==

--------------------------------------------------------------------------
# density fitted hartree fock
molecule h2o {
0 1
H 0.0000000000 0.0000000000 1.0833333333
H 0.0000000000 0.7987387277 -0.2907171218
O 0.0000000000 0.0000000000 0.0000000000
}

set basis 6-31g
energy('hf')

--------------------------------------------------------------------------

    Molecular point group: cs

    Geometry (in Angstrom), charge = 0, multiplicity = 1:

       Center              X                  Y                   Z               Mass
    ------------   -----------------  -----------------  -----------------  -----------------
         H            0.044695371750    -1.038980561862     0.000000000000     1.007825032230
         H           -0.754043355950     0.335069893238     0.000000000000     1.007825032230
         O            0.044695371750     0.044352771438     0.000000000000    15.994914619570

  Charge       = 0
  Multiplicity = 1
  Basis Set: 6-31G
    Blend: 6-31G
  Basis Set: (6-31G AUX)
    Blend: CC-PVDZ-JKFIT

    Orbital Energies [Eh]
    ---------------------

    Doubly Occupied:

       1Ap   -20.556708     2Ap    -1.359729     3Ap    -0.716104
       4Ap    -0.545858     1App   -0.499113

  @DF-RHF Final Energy:   -75.95736870187584

   => Energetics <=

    Nuclear Repulsion Energy =              9.2212158546332965
    One-Electron Energy =                -123.0021398451912091
    Two-Electron Energy =                  37.8235552886820798
    Total Energy =                        -75.9573687018758221

  Dipole Moment: [D]
     X:    -1.9915      Y:    -1.5707      Z:     0.0000     Total:     2.5363

*** Psi4 exiting successfully. Buy a developer a beer!
