                               Psi4 1.2.1 release

  ==> Input File <==

--------------------------------------------------------------------------
# density-fitted hartree fock energies and gradients with 6-31g
molecule h2o {
0 1
H 0.0000000000 0.0000000000 1.1000000000
H 0.0000000000 1.1817693036 -0.2083778132
O 0.0000000000 0.0000000000 0.0000000000
}

set basis 6-31g

gradient('mp2')
--------------------------------------------------------------------------

    Molecular point group: cs
  Charge       = 0
  Multiplicity = 1
  Basis Set: 6-31G
    Blend: 6-31G
  Basis Set: (6-31G AUX)
    Blend: CC-PVDZ-JKFIT

    Orbital Energies [Eh]
    ---------------------

    Doubly Occupied:

       1Ap   -20.600775     2Ap    -1.282555     3Ap    -0.613543
       4Ap    -0.538063     1App   -0.498689

  @DF-RHF Final Energy:   -75.93123504732435

   => Energetics <=

    Nuclear Repulsion Energy =              7.6765541521382747
    One-Electron Energy =                -120.1483280863863570
    Two-Electron Energy =                  36.5405388869237271
    Total Energy =                        -75.9312350473243498

  Dipole Moment: [D]
     X:    -2.0766      Y:    -1.7556      Z:     0.0000     Total:     2.7193

  Basis Set: (6-31G AUX)
    Blend: CC-PVDZ-RI
    Molecular point group: cs

    Geometry (in Angstrom), charge = 0, multiplicity = 1:

       Center              X                  Y                   Z               Mass
    ------------   -----------------  -----------------  -----------------  -----------------
         H            0.066128780925    -1.050107107979     0.000000000000     1.007825032070
         H           -1.115640522675     0.258270705221     0.000000000000     1.007825032070
         O            0.066128780925     0.049892892021     0.000000000000    15.994914619560

  Basis Set: 6-31G
    Blend: 6-31G
  Basis Set: (6-31G AUX)
    Blend: CC-PVDZ-JKFIT
  Basis Set: (6-31G AUX)
    Blend: CC-PVDZ-JKFIT
	 Reference Energy          =     -75.9312350473243498 [Eh]
	 Singles Energy            =      -0.0000000000000000 [Eh]
	 Same-Spin Energy          =      -0.0340205674457857 [Eh]
	 Opposite-Spin Energy      =      -0.1134258714045486 [Eh]
	 Correlation Energy        =      -0.1474464388503343 [Eh]
	 Total Energy              =     -76.0786814861746876 [Eh]

	 ================> DF-SCS-MP2 Energies <==================
	-----------------------------------------------------------
	 SCS Same-Spin Scale       =       0.3333333333333333 [-]
	 SCS Opposite-Spin Scale   =       1.2000000000000000 [-]
	 SCS Same-Spin Energy      =      -0.0113401891485952 [Eh]
	 SCS Opposite-Spin Energy  =      -0.1361110456854583 [Eh]
	 SCS Correlation Energy    =      -0.1474512348340535 [Eh]
	 SCS Total Energy          =     -76.0786862821584009 [Eh]
	-----------------------------------------------------------

  -Total Gradient:
     Atom            X                  Y                   Z
    ------   -----------------  -----------------  -----------------
       1       -0.000652902894    -0.067024686868    -0.000000000000
       2       -0.093008370939     0.015792155770    -0.000000000000
       3        0.093661273833     0.051232531098     0.000000000000

*** Psi4 exiting successfully. Buy a developer a beer!
