                               Psi4 1.3.2 release

  ==> Input File <==

--------------------------------------------------------------------------
# density fitted hartree fock
molecule h2o {
0 1
H 0.0000000000 0.0000000000 0.9333333333
H 0.0000000000 0.9191539028 -0.1620716325
O 0.0000000000 0.0000000000 0.0000000000
}

set scf_type pk
set basis 6-31g
gradient('hf')

--------------------------------------------------------------------------

    Molecular point group: c2v
  Charge       = 0
  Multiplicity = 1
  Basis Set: 6-31G
    Blend: 6-31G

    Orbital Energies [Eh]
    ---------------------

    Doubly Occupied:

       1A1   -20.558731     2A1    -1.375097     1B2    -0.715166
       3A1    -0.573024     1B1    -0.504856

  @RHF Final Energy:   -75.98041334332795

   => Energetics <=

    Nuclear Repulsion Energy =              9.4416763553550318
    One-Electron Energy =                -123.3904324698750230
    Two-Electron Energy =                  37.9683427711920487
    Total Energy =                        -75.9804133433279389

  Dipole Moment: [D]
     X:    -0.0000      Y:     0.0000      Z:     2.6949     Total:     2.6949

    Molecular point group: c2v

    Geometry (in Angstrom), charge = 0, multiplicity = 1:

       Center              X                  Y                   Z               Mass
    ------------   -----------------  -----------------  -----------------  -----------------
         H            0.000000000000    -0.714974813565     0.532793441394     1.007825032230
         H           -0.000000000000     0.714974813565     0.532793441394     1.007825032230
         O           -0.000000000000     0.000000000000    -0.067141660961    15.994914619570

  Basis Set: 6-31G
    Blend: 6-31G

  -Total Gradient:
     Atom            X                  Y                   Z
    ------   -----------------  -----------------  -----------------
       1       -0.000000000000     0.036608044003     0.000497955094
       2        0.000000000000    -0.036608044003     0.000497955094
       3       -0.000000000000     0.000000000000    -0.000995910187

*** Psi4 exiting successfully. Buy a developer a beer!
