                               Psi4 1.3.2 release

  ==> Input File <==

--------------------------------------------------------------------------
# density fitted hartree fock
molecule h2o {
noreorient
nocom
0 1
H 0.0000000000 0.0000000000 1.0000000000
H 0.0000000000 0.8416980980 -0.3630731189
O 0.0000000000 0.0000000000 0.0000000000
}

set scf_type pk
set basis 6-31g
gradient('hf')

--------------------------------------------------------------------------

    Molecular point group: cs
  Charge       = 0
  Multiplicity = 1
  Basis Set: 6-31G
    Blend: 6-31G

    Orbital Energies [Eh]
    ---------------------

    Doubly Occupied:

       1Ap   -20.553500     2Ap    -1.347833     3Ap    -0.724115
       4Ap    -0.543263     1App   -0.496920

  @RHF Final Energy:   -75.98152775868104

   => Energetics <=

    Nuclear Repulsion Energy =              9.1820130887501605
    One-Electron Energy =                -122.9958172882949015
    Two-Electron Energy =                  37.8322764408636942
    Total Energy =                        -75.9815277586810396

  Dipole Moment: [D]
     X:     0.0000      Y:     2.0291      Z:     1.4090     Total:     2.4703

    Molecular point group: cs

    Geometry (in Angstrom), charge = 0, multiplicity = 1:

       Center              X                  Y                   Z               Mass
    ------------   -----------------  -----------------  -----------------  -----------------
         H            0.000000000000     0.000000000000     1.000000000000     1.007825032230
         H            0.000000000000     0.841698098000    -0.363073118900     1.007825032230
         O            0.000000000000     0.000000000000     0.000000000000    15.994914619570

  Basis Set: 6-31G
    Blend: 6-31G

  -Total Gradient:
     Atom            X                  Y                   Z
    ------   -----------------  -----------------  -----------------
       1        0.000000000000    -0.003613931480     0.049422198683
       2        0.000000000000    -0.039588490355     0.012783190237
       3        0.000000000000     0.043202421835    -0.062205388920

*** Psi4 exiting successfully. Buy a developer a beer!
