                               Psi4 1.3.2 release

  ==> Input File <==

--------------------------------------------------------------------------
# density fitted hartree fock
molecule h2o {
0 1
H 0.0000000000 0.0000000000 1.0000000000
H 0.0000000000 0.9029125051 -0.3894784366
O 0.0000000000 0.0000000000 0.0000000000
}

set scf_type pk
set basis 6-31g
gradient('hf')

--------------------------------------------------------------------------

    Molecular point group: cs
  Charge       = 0
  Multiplicity = 1
  Basis Set: 6-31G
    Blend: 6-31G

    Orbital Energies [Eh]
    ---------------------

    Doubly Occupied:

       1Ap   -20.559878     2Ap    -1.329395     3Ap    -0.704482
       4Ap    -0.538714     1App   -0.494773

  @RHF Final Energy:   -75.98163234978756

   => Energetics <=

    Nuclear Repulsion Energy =              8.8579321460876521
    One-Electron Energy =                -122.4246444695971547
    Two-Electron Energy =                  37.5850799737219532
    Total Energy =                        -75.9816323497875601

  Dipole Moment: [D]
     X:    -2.0675      Y:    -1.3733      Z:     0.0000     Total:     2.4820

    Molecular point group: cs

    Geometry (in Angstrom), charge = 0, multiplicity = 1:

       Center              X                  Y                   Z               Mass
    ------------   -----------------  -----------------  -----------------  -----------------
         H            0.050524669299    -0.965836778296     0.000000000000     1.007825032230
         H           -0.852387835801     0.423641658304     0.000000000000     1.007825032230
         O            0.050524669299     0.034163221704     0.000000000000    15.994914619570

  Basis Set: 6-31G
    Blend: 6-31G

  -Total Gradient:
     Atom            X                  Y                   Z
    ------   -----------------  -----------------  -----------------
       1        0.005902953162    -0.048125639143     0.000000000000
       2       -0.028756322846     0.018941946105     0.000000000000
       3        0.022853369684     0.029183693038     0.000000000000

*** Psi4 exiting successfully. Buy a developer a beer!
