                               Psi4 1.3.2 release

  ==> Input File <==

--------------------------------------------------------------------------
# density fitted hartree fock
molecule h2o {
0 1
H 0.0000000000 0.0000000000 1.0000000000
H 0.0000000000 0.7938566201 -0.4583333333
O 0.0000000000 0.0000000000 0.0000000000
}

set scf_type pk
set basis 6-31g
gradient('hf')

--------------------------------------------------------------------------

    Molecular point group: cs
  Charge       = 0
  Multiplicity = 1
  Basis Set: 6-31G
    Blend: 6-31G

    Orbital Energies [Eh]
    ---------------------

    Doubly Occupied:

       1Ap   -20.547782     2Ap    -1.340561     3Ap    -0.733318
       4Ap    -0.530950     1App   -0.493253

  @RHF Final Energy:   -75.97966221041520

   => Energetics <=

    Nuclear Repulsion Energy =              9.1703952388437209
    One-Electron Energy =                -123.0083848540577094
    Two-Electron Energy =                  37.8583274047987857
    Total Energy =                        -75.9796622104151993

  Dipole Moment: [D]
     X:    -1.9793      Y:    -1.2371      Z:     0.0000     Total:     2.3341

    Molecular point group: cs

    Geometry (in Angstrom), charge = 0, multiplicity = 1:

       Center              X                  Y                   Z               Mass
    ------------   -----------------  -----------------  -----------------  -----------------
         H            0.044422181524    -0.969689721816     0.000000000000     1.007825032230
         H           -0.749434438576     0.488643611484     0.000000000000     1.007825032230
         O            0.044422181524     0.030310278184     0.000000000000    15.994914619570

  Basis Set: 6-31G
    Blend: 6-31G

  -Total Gradient:
     Atom            X                  Y                   Z
    ------   -----------------  -----------------  -----------------
       1        0.013057081320    -0.053841643356     0.000000000000
       2        0.039657556774    -0.006448646276     0.000000000000
       3       -0.052714638094     0.060290289631     0.000000000000

*** Psi4 exiting successfully. Buy a developer a beer!
