                               Psi4 1.2.1 release

  ==> Input File <==

--------------------------------------------------------------------------
# density-fitted hartree fock energies and gradients with 6-31g
molecule h2o {
0 1
H 0.0000000000 0.0000000000 0.9000000000
H 0.0000000000 1.1108147002 -0.2976419019
O 0.0000000000 0.0000000000 0.0000000000
}

set basis 6-31g

gradient('mp2')
--------------------------------------------------------------------------

    Molecular point group: cs
  Charge       = 0
  Multiplicity = 1
  Basis Set: 6-31G
    Blend: 6-31G
  Basis Set: (6-31G AUX)
    Blend: CC-PVDZ-JKFIT

    Orbital Energies [Eh]
    ---------------------

    Doubly Occupied:

       1Ap   -20.571608     2Ap    -1.336962     3Ap    -0.680177
       4Ap    -0.544789     1App   -0.499199

  @DF-RHF Final Energy:   -75.95451451301992

   => Energetics <=

    Nuclear Repulsion Energy =              8.7089872115058391
    One-Electron Energy =                -122.0615340707065855
    Two-Electron Energy =                  37.3980323461808126
    Total Energy =                        -75.9545145130199302

  Dipole Moment: [D]
     X:    -2.1383      Y:    -1.5357      Z:     0.0000     Total:     2.6327

  Basis Set: (6-31G AUX)
    Blend: CC-PVDZ-RI
    Molecular point group: cs

    Geometry (in Angstrom), charge = 0, multiplicity = 1:

       Center              X                  Y                   Z               Mass
    ------------   -----------------  -----------------  -----------------  -----------------
         H            0.062158343201    -0.866293584893     0.000000000000     1.007825032070
         H           -1.048656356999     0.331348317007     0.000000000000     1.007825032070
         O            0.062158343201     0.033706415107     0.000000000000    15.994914619560

  Basis Set: 6-31G
    Blend: 6-31G
  Basis Set: (6-31G AUX)
    Blend: CC-PVDZ-JKFIT
  Basis Set: (6-31G AUX)
    Blend: CC-PVDZ-JKFIT
	 Reference Energy          =     -75.9545145130199160 [Eh]
	 Singles Energy            =      -0.0000000000000000 [Eh]
	 Same-Spin Energy          =      -0.0312222917113548 [Eh]
	 Opposite-Spin Energy      =      -0.1031703436372643 [Eh]
	 Correlation Energy        =      -0.1343926353486191 [Eh]
	 Total Energy              =     -76.0889071483685342 [Eh]

	 ================> DF-SCS-MP2 Energies <==================
	-----------------------------------------------------------
	 SCS Same-Spin Scale       =       0.3333333333333333 [-]
	 SCS Opposite-Spin Scale   =       1.2000000000000000 [-]
	 SCS Same-Spin Energy      =      -0.0104074305704516 [Eh]
	 SCS Opposite-Spin Energy  =      -0.1238044123647172 [Eh]
	 SCS Correlation Energy    =      -0.1342118429351688 [Eh]
	 SCS Total Energy          =     -76.0887263559550888 [Eh]
	-----------------------------------------------------------

  -Total Gradient:
     Atom            X                  Y                   Z
    ------   -----------------  -----------------  -----------------
       1       -0.002057249873     0.100119774981    -0.000000000000
       2       -0.089391796987     0.022285641688     0.000000000000
       3        0.091449046860    -0.122405416669     0.000000000000

*** Psi4 exiting successfully. Buy a developer a beer!
