                               Psi4 1.3.2 release

  ==> Input File <==

--------------------------------------------------------------------------
# density fitted hartree fock
molecule h2o {
0 1
H 0.0000000000 0.0000000000 0.9000000000
H 0.0000000000 0.7938566201 -0.4583333333
O 0.0000000000 0.0000000000 0.0000000000
}

set scf_type pk
set basis 6-31g
gradient('hf')

--------------------------------------------------------------------------

    Molecular point group: cs
  Charge       = 0
  Multiplicity = 1
  Basis Set: 6-31G
    Blend: 6-31G

    Orbital Energies [Eh]
    ---------------------

    Doubly Occupied:

       1Ap   -20.539249     2Ap    -1.366125     3Ap    -0.765626
       4Ap    -0.538617     1App   -0.497356

  @RHF Final Energy:   -75.98031487150142

   => Energetics <=

    Nuclear Repulsion Energy =              9.6584195084075457
    One-Electron Energy =                -123.8635224704086397
    Two-Electron Energy =                  38.2247880904996862
    Total Energy =                        -75.9803148715014061

  Dipole Moment: [D]
     X:    -2.0068      Y:    -1.1382      Z:     0.0000     Total:     2.3071

    Molecular point group: cs

    Geometry (in Angstrom), charge = 0, multiplicity = 1:

       Center              X                  Y                   Z               Mass
    ------------   -----------------  -----------------  -----------------  -----------------
         H            0.044422181524    -0.875285465480     0.000000000000     1.007825032230
         H           -0.749434438576     0.483047867820     0.000000000000     1.007825032230
         O            0.044422181524     0.024714534520     0.000000000000    15.994914619570

  Basis Set: 6-31G
    Blend: 6-31G

  -Total Gradient:
     Atom            X                  Y                   Z
    ------   -----------------  -----------------  -----------------
       1        0.010401187389     0.060198315625     0.000000000000
       2        0.035234631920    -0.008550835609     0.000000000000
       3       -0.045635819309    -0.051647480016     0.000000000000

*** Psi4 exiting successfully. Buy a developer a beer!
