                               Psi4 1.3.2 release

  ==> Input File <==

--------------------------------------------------------------------------
# density fitted hartree fock
molecule h2o {
noreorient
nocom
0 1
H 0.0000000000 0.0000000000 1.0000000000
H 0.0000000000 0.8787387630 -0.4413191939
O 0.0000000000 0.0000000000 0.0000000000
}

set scf_type pk
set basis 6-31g
gradient('hf')

--------------------------------------------------------------------------

    Molecular point group: cs
  Charge       = 0
  Multiplicity = 1
  Basis Set: 6-31G
    Blend: 6-31G

    Orbital Energies [Eh]
    ---------------------

    Doubly Occupied:

       1Ap   -20.556893     2Ap    -1.325876     3Ap    -0.708879
       4Ap    -0.532489     1App   -0.492818

  @RHF Final Energy:   -75.98071297584758

   => Energetics <=

    Nuclear Repulsion Energy =              8.8520686832233775
    One-Electron Energy =                -122.4316515427155281
    Two-Electron Energy =                  37.5988698836445749
    Total Energy =                        -75.9807129758475810

  Dipole Moment: [D]
     X:     0.0000      Y:     2.0492      Z:     1.2795     Total:     2.4159

    Molecular point group: cs

    Geometry (in Angstrom), charge = 0, multiplicity = 1:

       Center              X                  Y                   Z               Mass
    ------------   -----------------  -----------------  -----------------  -----------------
         H            0.000000000000     0.000000000000     1.000000000000     1.007825032230
         H            0.000000000000     0.878738763000    -0.441319193900     1.007825032230
         O            0.000000000000     0.000000000000     0.000000000000    15.994914619570

  Basis Set: 6-31G
    Blend: 6-31G

  -Total Gradient:
     Atom            X                  Y                   Z
    ------   -----------------  -----------------  -----------------
       1        0.000000000000    -0.010752242206     0.050119067225
       2        0.000000000000     0.027127601034    -0.025859986403
       3        0.000000000000    -0.016375358828    -0.024259080822

*** Psi4 exiting successfully. Buy a developer a beer!
