                               Psi4 1.3.2 release

  ==> Input File <==

--------------------------------------------------------------------------
# density fitted hartree fock
molecule h2o {
noreorient
nocom
0 1
H 0.0000000000 0.0000000000 0.9446306470
H 0.0000000000 0.8785356629 -0.3471341934
O 0.0000000000 0.0000000000 0.0000000000
}

set scf_type pk
set basis 6-31g
set e_convergence 10
gradient('hf')

--------------------------------------------------------------------------

    Molecular point group: cs
  Charge       = 0
  Multiplicity = 1
  Basis Set: 6-31G
    Blend: 6-31G

    Orbital Energies [Eh]
    ---------------------

    Doubly Occupied:

       1Ap   -20.552525     2Ap    -1.355211     3Ap    -0.729409
       4Ap    -0.548941     1App   -0.498627

  @RHF Final Energy:   -75.98530651946766

   => Energetics <=

    Nuclear Repulsion Energy =              9.3018549679843652
    One-Electron Energy =                -123.2048989425317416
    Two-Electron Energy =                  37.9177374550797239
    Total Energy =                        -75.9853065194676560

  Dipole Moment: [D]
     X:     0.0000      Y:     2.0657      Z:     1.4049     Total:     2.4981

    Molecular point group: cs

    Geometry (in Angstrom), charge = 0, multiplicity = 1:

       Center              X                  Y                   Z               Mass
    ------------   -----------------  -----------------  -----------------  -----------------
         H            0.000000000000     0.000000000000     0.944630647000     1.007825032230
         H            0.000000000000     0.878535662900    -0.347134193400     1.007825032230
         O            0.000000000000     0.000000000000     0.000000000000    15.994914619570

  Basis Set: 6-31G
    Blend: 6-31G

  -Total Gradient:
     Atom            X                  Y                   Z
    ------   -----------------  -----------------  -----------------
       1        0.000000000000     0.000386454375    -0.005615644038
       2        0.000000000000    -0.005080707539     0.002423059245
       3        0.000000000000     0.004694253164     0.003192584793

*** Psi4 exiting successfully. Buy a developer a beer!
