                               Psi4 1.3.2 release

  ==> Input File <==

--------------------------------------------------------------------------
# density fitted hartree fock
molecule h2o {
0 1
H 0.0000000000 0.0000000000 0.9833333333
H 0.0000000000 0.8621905611 -0.2581229094
O 0.0000000000 0.0000000000 0.0000000000
}

set scf_type pk
set basis 6-31g
gradient('hf')

--------------------------------------------------------------------------

    Molecular point group: cs
  Charge       = 0
  Multiplicity = 1
  Basis Set: 6-31G
    Blend: 6-31G

    Orbital Energies [Eh]
    ---------------------

    Doubly Occupied:

       1Ap   -20.555566     2Ap    -1.364388     3Ap    -0.723183
       4Ap    -0.558378     1App   -0.501399

  @RHF Final Energy:   -75.98050609965574

   => Energetics <=

    Nuclear Repulsion Energy =              9.3590721885532684
    One-Electron Energy =                -123.2733301635541352
    Two-Electron Energy =                  37.9337518753451306
    Total Energy =                        -75.9805060996557415

  Dipole Moment: [D]
     X:    -2.0467      Y:    -1.5810      Z:     0.0000     Total:     2.5862

    Molecular point group: cs

    Geometry (in Angstrom), charge = 0, multiplicity = 1:

       Center              X                  Y                   Z               Mass
    ------------   -----------------  -----------------  -----------------  -----------------
         H            0.048245973698    -0.942752416951     0.000000000000     1.007825032230
         H           -0.813944587402     0.298703825749     0.000000000000     1.007825032230
         O            0.048245973698     0.040580916349     0.000000000000    15.994914619570

  Basis Set: 6-31G
    Blend: 6-31G

  -Total Gradient:
     Atom            X                  Y                   Z
    ------   -----------------  -----------------  -----------------
       1       -0.008986823988    -0.030848853365     0.000000000000
       2        0.064518027619    -0.029564955766     0.000000000000
       3       -0.055531203631     0.060413809131     0.000000000000

*** Psi4 exiting successfully. Buy a developer a beer!
