                               Psi4 1.3.2 release

  ==> Input File <==

--------------------------------------------------------------------------
# density fitted hartree fock
molecule h2o {
0 1
H 0.0000000000 0.0000000000 0.9666666667
H 0.0000000000 0.8191632536 -0.4113992485
O 0.0000000000 0.0000000000 0.0000000000
}

set scf_type pk
set basis 6-31g
gradient('hf')

--------------------------------------------------------------------------

    Molecular point group: cs
  Charge       = 0
  Multiplicity = 1
  Basis Set: 6-31G
    Blend: 6-31G

    Orbital Energies [Eh]
    ---------------------

    Doubly Occupied:

       1Ap   -20.547793     2Ap    -1.351816     3Ap    -0.739087
       4Ap    -0.539690     1App   -0.496257

  @RHF Final Energy:   -75.98321732722057

   => Energetics <=

    Nuclear Repulsion Energy =              9.3277570757564163
    One-Electron Energy =                -123.2726628217349116
    Two-Electron Energy =                  37.9616884187579302
    Total Energy =                        -75.9832173272205722

  Dipole Moment: [D]
     X:    -2.0155      Y:    -1.2956      Z:     0.0000     Total:     2.3960

    Molecular point group: cs

    Geometry (in Angstrom), charge = 0, multiplicity = 1:

       Center              X                  Y                   Z               Mass
    ------------   -----------------  -----------------  -----------------  -----------------
         H            0.045838275864    -0.935595325326     0.000000000000     1.007825032230
         H           -0.773324977736     0.442470589874     0.000000000000     1.007825032230
         O            0.045838275864     0.031071341374     0.000000000000    15.994914619570

  Basis Set: 6-31G
    Blend: 6-31G

  -Total Gradient:
     Atom            X                  Y                   Z
    ------   -----------------  -----------------  -----------------
       1        0.007536110854    -0.022158533205     0.000000000000
       2        0.038117587842    -0.010250265510     0.000000000000
       3       -0.045653698696     0.032408798716     0.000000000000

*** Psi4 exiting successfully. Buy a developer a beer!
