                               Psi4 1.2.1 release

  ==> Input File <==

--------------------------------------------------------------------------
# density-fitted hartree fock energies and gradients with 6-31g
molecule h2o {
0 1
H 0.0000000000 0.0000000000 0.9000000000
H 0.0000000000 1.1591109915 -0.3105828541
O 0.0000000000 0.0000000000 0.0000000000
}

set basis 6-31g

gradient('mp2')
--------------------------------------------------------------------------

    Molecular point group: cs
  Charge       = 0
  Multiplicity = 1
  Basis Set: 6-31G
    Blend: 6-31G
  Basis Set: (6-31G AUX)
    Blend: CC-PVDZ-JKFIT

    Orbital Energies [Eh]
    ---------------------

    Doubly Occupied:

       1Ap   -20.575502     2Ap    -1.331212     3Ap    -0.671061
       4Ap    -0.538520     1App   -0.498788

  @DF-RHF Final Energy:   -75.94320653691359

   => Energetics <=

    Nuclear Repulsion Energy =              8.5473795480345149
    One-Electron Energy =                -121.7510078944719538
    Two-Electron Energy =                  37.2604218095238480
    Total Energy =                        -75.9432065369135927

  Dipole Moment: [D]
     X:    -2.1386      Y:    -1.5332      Z:     0.0000     Total:     2.6314

  Basis Set: (6-31G AUX)
    Blend: CC-PVDZ-RI
    Molecular point group: cs

    Geometry (in Angstrom), charge = 0, multiplicity = 1:

       Center              X                  Y                   Z               Mass
    ------------   -----------------  -----------------  -----------------  -----------------
         H            0.064860879861    -0.867017727406     0.000000000000     1.007825032070
         H           -1.094250111639     0.343565126694     0.000000000000     1.007825032070
         O            0.064860879861     0.032982272594     0.000000000000    15.994914619560

  Basis Set: 6-31G
    Blend: 6-31G
  Basis Set: (6-31G AUX)
    Blend: CC-PVDZ-JKFIT
  Basis Set: (6-31G AUX)
    Blend: CC-PVDZ-JKFIT
	 Reference Energy          =     -75.9432065369135927 [Eh]
	 Singles Energy            =      -0.0000000000000000 [Eh]
	 Same-Spin Energy          =      -0.0315862900002603 [Eh]
	 Opposite-Spin Energy      =      -0.1049090055475374 [Eh]
	 Correlation Energy        =      -0.1364952955477976 [Eh]
	 Total Energy              =     -76.0797018324613958 [Eh]

	 ================> DF-SCS-MP2 Energies <==================
	-----------------------------------------------------------
	 SCS Same-Spin Scale       =       0.3333333333333333 [-]
	 SCS Opposite-Spin Scale   =       1.2000000000000000 [-]
	 SCS Same-Spin Energy      =      -0.0105287633334201 [Eh]
	 SCS Opposite-Spin Energy  =      -0.1258908066570448 [Eh]
	 SCS Correlation Energy    =      -0.1364195699904649 [Eh]
	 SCS Total Energy          =     -76.0796261069040582 [Eh]
	-----------------------------------------------------------

  -Total Gradient:
     Atom            X                  Y                   Z
    ------   -----------------  -----------------  -----------------
       1        0.000398886849     0.101274291871     0.000000000000
       2       -0.098394159544     0.026674352615     0.000000000000
       3        0.097995272695    -0.127948644486    -0.000000000000

*** Psi4 exiting successfully. Buy a developer a beer!
