                               Psi4 1.2.1 release

  ==> Input File <==

--------------------------------------------------------------------------
# density-fitted hartree fock energies and gradients with 6-31g
molecule h2o {
0 1
H 0.0000000000 0.0000000000 1.1000000000
H 0.0000000000 1.0832885283 -0.1910129954
O 0.0000000000 0.0000000000 0.0000000000
}

set basis 6-31g

gradient('mp2')
--------------------------------------------------------------------------

    Molecular point group: c2v
  Charge       = 0
  Multiplicity = 1
  Basis Set: 6-31G
    Blend: 6-31G
  Basis Set: (6-31G AUX)
    Blend: CC-PVDZ-JKFIT

    Orbital Energies [Eh]
    ---------------------

    Doubly Occupied:

       1A1   -20.591938     2A1    -1.297552     1B2    -0.632403
       3A1    -0.547547     1B1    -0.499033

  @DF-RHF Final Energy:   -75.95180694162288

   => Energetics <=

    Nuclear Repulsion Energy =              8.0111193002194216
    One-Electron Energy =                -120.7889048728233234
    Two-Electron Energy =                  36.8259786309810266
    Total Energy =                        -75.9518069416228769

  Dipole Moment: [D]
     X:    -0.0000      Y:     0.0000      Z:     2.7283     Total:     2.7283

  Basis Set: (6-31G AUX)
    Blend: CC-PVDZ-RI
    Molecular point group: c2v

    Geometry (in Angstrom), charge = 0, multiplicity = 1:

       Center              X                  Y                   Z               Mass
    ------------   -----------------  -----------------  -----------------  -----------------
         H            0.000000000000    -0.842648887414     0.627935127393     1.007825032070
         H           -0.000000000000     0.842648887414     0.627935127393     1.007825032070
         O           -0.000000000000     0.000000000000    -0.079131243268    15.994914619560

  Basis Set: 6-31G
    Blend: 6-31G
  Basis Set: (6-31G AUX)
    Blend: CC-PVDZ-JKFIT
  Basis Set: (6-31G AUX)
    Blend: CC-PVDZ-JKFIT
	 Reference Energy          =     -75.9518069416228769 [Eh]
	 Singles Energy            =      -0.0000000000000000 [Eh]
	 Same-Spin Energy          =      -0.0330878618255088 [Eh]
	 Opposite-Spin Energy      =      -0.1095543290109437 [Eh]
	 Correlation Energy        =      -0.1426421908364525 [Eh]
	 Total Energy              =     -76.0944491324593315 [Eh]

	 ================> DF-SCS-MP2 Energies <==================
	-----------------------------------------------------------
	 SCS Same-Spin Scale       =       0.3333333333333333 [-]
	 SCS Opposite-Spin Scale   =       1.2000000000000000 [-]
	 SCS Same-Spin Energy      =      -0.0110292872751696 [Eh]
	 SCS Opposite-Spin Energy  =      -0.1314651948131324 [Eh]
	 SCS Correlation Energy    =      -0.1424944820883020 [Eh]
	 SCS Total Energy          =     -76.0943014237111726 [Eh]
	-----------------------------------------------------------

  -Total Gradient:
     Atom            X                  Y                   Z
    ------   -----------------  -----------------  -----------------
       1        0.000000000000    -0.050111782067     0.047423711133
       2        0.000000000000     0.050111782064     0.047423711131
       3       -0.000000000000     0.000000000003    -0.094847422264

*** Psi4 exiting successfully. Buy a developer a beer!
