                               Psi4 1.3.2 release

  ==> Input File <==

--------------------------------------------------------------------------
# density fitted hartree fock
molecule h2o {
0 1
H 0.0000000000 0.0000000000 0.9333333333
H 0.0000000000 0.8570016998 -0.3696744483
O 0.0000000000 0.0000000000 0.0000000000
}

set scf_type pk
set basis 6-31g
gradient('hf')

--------------------------------------------------------------------------

    Molecular point group: c2v
  Charge       = 0
  Multiplicity = 1
  Basis Set: 6-31G
    Blend: 6-31G

    Orbital Energies [Eh]
    ---------------------

    Doubly Occupied:

       1A1   -20.549003     2A1    -1.359414     1B2    -0.739164
       3A1    -0.547246     1B1    -0.498537

  @RHF Final Energy:   -75.98477270713049

   => Energetics <=

    Nuclear Repulsion Energy =              9.4109174371901165
    One-Electron Energy =                -123.4046509983938620
    Two-Electron Energy =                  38.0089608540732513
    Total Energy =                        -75.9847727071304888

  Dipole Moment: [D]
     X:     0.0000      Y:     0.0000      Z:     2.4587     Total:     2.4587

    Molecular point group: c2v

    Geometry (in Angstrom), charge = 0, multiplicity = 1:

       Center              X                  Y                   Z               Mass
    ------------   -----------------  -----------------  -----------------  -----------------
         H            0.000000000000    -0.779788623983     0.455476700401     1.007825032230
         H           -0.000000000000     0.779788623983     0.455476700401     1.007825032230
         O            0.000000000000     0.000000000000    -0.057398345809    15.994914619570

  Basis Set: 6-31G
    Blend: 6-31G

  -Total Gradient:
     Atom            X                  Y                   Z
    ------   -----------------  -----------------  -----------------
       1       -0.000000000000     0.013985782926    -0.011240619802
       2        0.000000000000    -0.013985782926    -0.011240619802
       3       -0.000000000000     0.000000000000     0.022481239604

*** Psi4 exiting successfully. Buy a developer a beer!
