                               Psi4 1.3.2 release

  ==> Input File <==

--------------------------------------------------------------------------
# density fitted hartree fock
molecule h2o {
0 1
H 0.0000000000 0.0000000000 0.9666666667
H 0.0000000000 0.9260565286 -0.2772431250
O 0.0000000000 0.0000000000 0.0000000000
}

set scf_type pk
set basis 6-31g
gradient('hf')

--------------------------------------------------------------------------

    Molecular point group: c2v
  Charge       = 0
  Multiplicity = 1
  Basis Set: 6-31G
    Blend: 6-31G

    Orbital Energies [Eh]
    ---------------------

    Doubly Occupied:

       1A1   -20.560619     2A1    -1.348975     1B2    -0.708567
       3A1    -0.555069     1B1    -0.499777

  @RHF Final Energy:   -75.98433381283697

   => Energetics <=

    Nuclear Repulsion Energy =              9.1000300145921855
    One-Electron Energy =                -122.8227125799772210
    Two-Electron Energy =                  37.7383487525480774
    Total Energy =                        -75.9843338128369652

  Dipole Moment: [D]
     X:    -0.0000      Y:     0.0000      Z:     2.5965     Total:     2.5965

    Molecular point group: c2v

    Geometry (in Angstrom), charge = 0, multiplicity = 1:

       Center              X                  Y                   Z               Mass
    ------------   -----------------  -----------------  -----------------  -----------------
         H            0.000000000000    -0.775385753037     0.512650074800     1.007825032230
         H           -0.000000000000     0.775385753037     0.512650074800     1.007825032230
         O           -0.000000000000     0.000000000000    -0.064603230520    15.994914619570

  Basis Set: 6-31G
    Blend: 6-31G

  -Total Gradient:
     Atom            X                  Y                   Z
    ------   -----------------  -----------------  -----------------
       1        0.000000000000    -0.007287703220     0.014368181130
       2       -0.000000000000     0.007287703220     0.014368181130
       3       -0.000000000000     0.000000000000    -0.028736362260

*** Psi4 exiting successfully. Buy a developer a beer!
