                               Psi4 1.3.2 release

  ==> Input File <==

--------------------------------------------------------------------------
# density fitted hartree fock
molecule h2o {
noreorient
nocom
0 1
H 0.0000000000 0.0000000000 0.9521306472
H 0.0000000000 0.8810428595 -0.3475916317
O 0.0000000000 0.0000000000 0.0000000000
}

set scf_type pk
set basis 6-31g
set e_convergence 10
gradient('hf')

--------------------------------------------------------------------------

    Molecular point group: cs
  Charge       = 0
  Multiplicity = 1
  Basis Set: 6-31G
    Blend: 6-31G

    Orbital Energies [Eh]
    ---------------------

    Doubly Occupied:

       1Ap   -20.553496     2Ap    -1.352554     3Ap    -0.726355
       4Ap    -0.548263     1App   -0.498307

  @RHF Final Energy:   -75.98534570220252

   => Energetics <=

    Nuclear Repulsion Energy =              9.2530000629386393
    One-Electron Energy =                -123.1187387805650246
    Two-Electron Energy =                  37.8803930154238486
    Total Energy =                        -75.9853457022025367

  Dipole Moment: [D]
     X:     0.0000      Y:     2.0656      Z:     1.4098     Total:     2.5009

    Molecular point group: cs

    Geometry (in Angstrom), charge = 0, multiplicity = 1:

       Center              X                  Y                   Z               Mass
    ------------   -----------------  -----------------  -----------------  -----------------
         H            0.000000000000     0.000000000000     0.952130647200     1.007825032230
         H            0.000000000000     0.881042859500    -0.347591631700     1.007825032230
         O            0.000000000000     0.000000000000     0.000000000000    15.994914619570

  Basis Set: 6-31G
    Blend: 6-31G

  -Total Gradient:
     Atom            X                  Y                   Z
    ------   -----------------  -----------------  -----------------
       1        0.000000000000     0.000025111197     0.002816157955
       2        0.000000000000    -0.002674995257     0.001082484512
       3        0.000000000000     0.002649884060    -0.003898642467

*** Psi4 exiting successfully. Buy a developer a beer!
