                               Psi4 1.3.2 release

  ==> Input File <==

--------------------------------------------------------------------------
# density fitted hartree fock
molecule h2o {
noreorient
nocom
0 1
H 0.0000000000 0.0000000000 0.9446306470
H 0.0000000000 0.8854192632 -0.3501221182
O 0.0000000000 0.0000000000 0.0000000000
}

set scf_type pk
set basis 6-31g
set e_convergence 10
gradient('hf')

--------------------------------------------------------------------------

    Molecular point group: cs
  Charge       = 0
  Multiplicity = 1
  Basis Set: 6-31G
    Blend: 6-31G

    Orbital Energies [Eh]
    ---------------------

    Doubly Occupied:

       1Ap   -20.553223     2Ap    -1.353184     3Ap    -0.727177
       4Ap    -0.548359     1App   -0.498368

  @RHF Final Energy:   -75.98532540669410

   => Energetics <=

    Nuclear Repulsion Energy =              9.2651827584812221
    One-Electron Energy =                -123.1403944744151318
    Two-Electron Energy =                  37.8898863092398130
    Total Energy =                        -75.9853254066941020

  Dipole Moment: [D]
     X:     0.0000      Y:     2.0699      Z:     1.4010     Total:     2.4995

    Molecular point group: cs

    Geometry (in Angstrom), charge = 0, multiplicity = 1:

       Center              X                  Y                   Z               Mass
    ------------   -----------------  -----------------  -----------------  -----------------
         H            0.000000000000     0.000000000000     0.944630647000     1.007825032230
         H            0.000000000000     0.885419263200    -0.350122118200     1.007825032230
         O            0.000000000000     0.000000000000     0.000000000000    15.994914619570

  Basis Set: 6-31G
    Blend: 6-31G

  -Total Gradient:
     Atom            X                  Y                   Z
    ------   -----------------  -----------------  -----------------
       1        0.000000000000     0.000050063827    -0.005737090060
       2        0.000000000000     0.002706274221    -0.001016732846
       3        0.000000000000    -0.002756338048     0.006753822907

*** Psi4 exiting successfully. Buy a developer a beer!
