                               Psi4 1.3.2 release

  ==> Input File <==

--------------------------------------------------------------------------
# density fitted hartree fock
molecule h2o {
0 1
H 0.0000000000 0.0000000000 0.9000000000
H 0.0000000000 0.9100900367 -0.2724630711
O 0.0000000000 0.0000000000 0.0000000000
}

set scf_type pk
set basis 6-31g
gradient('hf')

--------------------------------------------------------------------------

    Molecular point group: cs
  Charge       = 0
  Multiplicity = 1
  Basis Set: 6-31G
    Blend: 6-31G

    Orbital Energies [Eh]
    ---------------------

    Doubly Occupied:

       1Ap   -20.552373     2Ap    -1.372628     3Ap    -0.732865
       4Ap    -0.561088     1App   -0.502388

  @RHF Final Energy:   -75.98144247908388

   => Energetics <=

    Nuclear Repulsion Energy =              9.5165601476428492
    One-Electron Energy =                -123.5533214206398043
    Two-Electron Energy =                  38.0553187939130808
    Total Energy =                        -75.9814424790838814

  Dipole Moment: [D]
     X:    -2.0858      Y:    -1.5166      Z:     0.0000     Total:     2.5789

    Molecular point group: cs

    Geometry (in Angstrom), charge = 0, multiplicity = 1:

       Center              X                  Y                   Z               Mass
    ------------   -----------------  -----------------  -----------------  -----------------
         H            0.050926305569    -0.864884642059     0.000000000000     1.007825032230
         H           -0.859163731131     0.307578429041     0.000000000000     1.007825032230
         O            0.050926305569     0.035115357941     0.000000000000    15.994914619570

  Basis Set: 6-31G
    Blend: 6-31G

  -Total Gradient:
     Atom            X                  Y                   Z
    ------   -----------------  -----------------  -----------------
       1       -0.011488161368     0.069884978120     0.000000000000
       2       -0.000807408101    -0.011119070786     0.000000000000
       3        0.012295569469    -0.058765907334     0.000000000000

*** Psi4 exiting successfully. Buy a developer a beer!
