                               Psi4 1.3.2 release

  ==> Input File <==

--------------------------------------------------------------------------
# density fitted hartree fock
molecule h2o {
0 1
H 0.0000000000 0.0000000000 0.9000000000
H 0.0000000000 0.8757403835 -0.2075542837
O 0.0000000000 0.0000000000 0.0000000000
}

set scf_type pk
set basis 6-31g
gradient('hf')

--------------------------------------------------------------------------

    Molecular point group: c2v
  Charge       = 0
  Multiplicity = 1
  Basis Set: 6-31G
    Blend: 6-31G

    Orbital Energies [Eh]
    ---------------------

    Doubly Occupied:

       1A1   -20.549723     2A1    -1.391086     1B2    -0.741363
       3A1    -0.571399     1B1    -0.505547

  @RHF Final Energy:   -75.97651343412817

   => Energetics <=

    Nuclear Repulsion Energy =              9.7823800021187282
    One-Electron Energy =                -123.9995494811664543
    Two-Electron Energy =                  38.2406560449195538
    Total Energy =                        -75.9765134341281794

  Dipole Moment: [D]
     X:     0.0000      Y:     0.0000      Z:     2.6240     Total:     2.6240

    Molecular point group: c2v

    Geometry (in Angstrom), charge = 0, multiplicity = 1:

       Center              X                  Y                   Z               Mass
    ------------   -----------------  -----------------  -----------------  -----------------
         H            0.000000000000    -0.705974098433     0.495739723352     1.007825032230
         H           -0.000000000000     0.705974098433     0.495739723352     1.007825032230
         O            0.000000000000     0.000000000000    -0.062472218771    15.994914619570

  Basis Set: 6-31G
    Blend: 6-31G

  -Total Gradient:
     Atom            X                  Y                   Z
    ------   -----------------  -----------------  -----------------
       1       -0.000000000000     0.069362156009    -0.028145502568
       2        0.000000000000    -0.069362156009    -0.028145502568
       3        0.000000000000     0.000000000000     0.056291005136

*** Psi4 exiting successfully. Buy a developer a beer!
