                               Psi4 1.3.2 release

  ==> Input File <==

--------------------------------------------------------------------------

basis {
assign one_s_orb
[ one_s_orb ]
cartesian
****
H     0
S   1   1.00
      0.2331359749       1.0000000000
****
}

molecule h2o {
symmetry c1
noreorient
nocom
0 1
H 0.00 0.00 0.00
H 0.00 0.00 0.90
}

set scf_type pk
e, wfn = energy('hf', return_wfn=True)
mol = wfn.molecule()
bs = wfn.basisset()

import psi4
basis = psi4.core.BasisSet.build(mol)
mints = psi4.core.MintsHelper(basis)
# These are the same
mints.ao_overlap().print_out()
wfn.S().print_out()
# Can get the rest too
mints.ao_kinetic().print_out()
mints.ao_potential().print_out()
mints.ao_eri().print_out()

--------------------------------------------------------------------------

    Molecular point group: c1

    Geometry (in Angstrom), charge = 0, multiplicity = 1:

       Center              X                  Y                   Z               Mass
    ------------   -----------------  -----------------  -----------------  -----------------
         H            0.000000000000     0.000000000000     0.000000000000     1.007825032230
         H            0.000000000000     0.000000000000     0.900000000000     1.007825032230

  Charge       = 0
  Multiplicity = 1
  Basis Set: ANONYMOUS49DE9B0E
    Blend: ONE_S_ORB

    Orbital Energies [Eh]
    ---------------------

    Doubly Occupied:

       1A     -0.504223

  @RHF Final Energy:    -0.93391287758035

   => Energetics <=

    Nuclear Repulsion Energy =              0.5879746785222222
    One-Electron Energy =                  -2.0353289157229755
    Two-Electron Energy =                   0.5134413596203999
    Total Energy =                         -0.9339128775803534

  Dipole Moment: [D]
     X:     0.0000      Y:     0.0000      Z:    -0.0000     Total:     0.0000

*** Psi4 exiting successfully. Buy a developer a beer!
