                               Psi4 1.3.2 release

  ==> Input File <==

--------------------------------------------------------------------------
# density fitted hartree fock
molecule h2o {
noreorient
nocom
0 1
H 0.0000000000 0.0000000000 0.9000000000
H 0.0000000000 0.8263944962 -0.3564717894
O 0.0000000000 0.0000000000 0.0000000000
}

set scf_type pk
set basis 6-31g
gradient('hf')

--------------------------------------------------------------------------

    Molecular point group: cs
  Charge       = 0
  Multiplicity = 1
  Basis Set: 6-31G
    Blend: 6-31G

    Orbital Energies [Eh]
    ---------------------

    Doubly Occupied:

       1Ap   -20.542794     2Ap    -1.378739     3Ap    -0.760372
       4Ap    -0.552178     1App   -0.501186

  @RHF Final Energy:   -75.97970881159370

   => Energetics <=

    Nuclear Repulsion Energy =              9.7594699349383536
    One-Electron Energy =                -124.0078199142572828
    Two-Electron Energy =                  38.2686411677252352
    Total Energy =                        -75.9797088115936958

  Dipole Moment: [D]
     X:     0.0000      Y:     2.0398      Z:     1.3416     Total:     2.4415

    Molecular point group: cs

    Geometry (in Angstrom), charge = 0, multiplicity = 1:

       Center              X                  Y                   Z               Mass
    ------------   -----------------  -----------------  -----------------  -----------------
         H            0.000000000000     0.000000000000     0.900000000000     1.007825032230
         H            0.000000000000     0.826394496200    -0.356471789400     1.007825032230
         O            0.000000000000     0.000000000000     0.000000000000    15.994914619570

  Basis Set: 6-31G
    Blend: 6-31G

  -Total Gradient:
     Atom            X                  Y                   Z
    ------   -----------------  -----------------  -----------------
       1        0.000000000000     0.001193628973    -0.064324587445
       2        0.000000000000    -0.058591099987     0.026573676897
       3        0.000000000000     0.057397471014     0.037750910548

*** Psi4 exiting successfully. Buy a developer a beer!
