                               Psi4 1.3.2 release

  ==> Input File <==

--------------------------------------------------------------------------
# density fitted hartree fock
molecule h2o {
noreorient
nocom
0 1
H 0.0000000000 0.0000000000 1.0000000000
H 0.0000000000 0.9260565286 -0.2772431250
O 0.0000000000 0.0000000000 0.0000000000
}

set scf_type pk
set basis 6-31g
gradient('hf')

--------------------------------------------------------------------------

    Molecular point group: cs
  Charge       = 0
  Multiplicity = 1
  Basis Set: 6-31G
    Blend: 6-31G

    Orbital Energies [Eh]
    ---------------------

    Doubly Occupied:

       1Ap   -20.563859     2Ap    -1.340787     3Ap    -0.699355
       4Ap    -0.552538     1App   -0.498926

  @RHF Final Energy:   -75.98245680427691

   => Energetics <=

    Nuclear Repulsion Energy =              8.9482397520145796
    One-Electron Energy =                -122.5504634582886325
    Two-Electron Energy =                  37.6197669019971528
    Total Energy =                        -75.9824568042769073

  Dipole Moment: [D]
     X:     0.0000      Y:     2.0778      Z:     1.5663     Total:     2.6021

    Molecular point group: cs

    Geometry (in Angstrom), charge = 0, multiplicity = 1:

       Center              X                  Y                   Z               Mass
    ------------   -----------------  -----------------  -----------------  -----------------
         H            0.000000000000     0.000000000000     1.000000000000     1.007825032230
         H            0.000000000000     0.926056528600    -0.277243125000     1.007825032230
         O            0.000000000000     0.000000000000     0.000000000000    15.994914619570

  Basis Set: 6-31G
    Blend: 6-31G

  -Total Gradient:
     Atom            X                  Y                   Z
    ------   -----------------  -----------------  -----------------
       1        0.000000000000     0.005592630550     0.044003986327
       2        0.000000000000     0.015127907401     0.001510192377
       3        0.000000000000    -0.020720537951    -0.045514178704

*** Psi4 exiting successfully. Buy a developer a beer!
