                               Psi4 1.3.2 release

  ==> Input File <==

--------------------------------------------------------------------------
# density fitted hartree fock
molecule h2o {
0 1
H 0.0000000000 0.0000000000 1.0000000000
H 0.0000000000 0.8570016998 -0.3696744483
O 0.0000000000 0.0000000000 0.0000000000
}

set scf_type pk
set basis 6-31g
gradient('hf')

--------------------------------------------------------------------------

    Molecular point group: cs
  Charge       = 0
  Multiplicity = 1
  Basis Set: 6-31G
    Blend: 6-31G

    Orbital Energies [Eh]
    ---------------------

    Doubly Occupied:

       1Ap   -20.555113     2Ap    -1.342834     3Ap    -0.719111
       4Ap    -0.542153     1App   -0.496333

  @RHF Final Energy:   -75.98247518043591

   => Energetics <=

    Nuclear Repulsion Energy =              9.0967459569033124
    One-Electron Energy =                -122.8473548673594138
    Two-Electron Energy =                  37.7681337300201818
    Total Energy =                        -75.9824751804359124

  Dipole Moment: [D]
     X:    -2.0394      Y:    -1.3996      Z:     0.0000     Total:     2.4734

    Molecular point group: cs

    Geometry (in Angstrom), charge = 0, multiplicity = 1:

       Center              X                  Y                   Z               Mass
    ------------   -----------------  -----------------  -----------------  -----------------
         H            0.047955618320    -0.964728597876     0.000000000000     1.007825032230
         H           -0.809046081480     0.404945850424     0.000000000000     1.007825032230
         O            0.047955618320     0.035271402124     0.000000000000    15.994914619570

  Basis Set: 6-31G
    Blend: 6-31G

  -Total Gradient:
     Atom            X                  Y                   Z
    ------   -----------------  -----------------  -----------------
       1        0.004186466735    -0.049094211476     0.000000000000
       2        0.019384596607    -0.003476685148     0.000000000000
       3       -0.023571063343     0.052570896625     0.000000000000

*** Psi4 exiting successfully. Buy a developer a beer!
