                               Psi4 1.3.2 release

  ==> Input File <==

--------------------------------------------------------------------------
# density fitted hartree fock
molecule h2o {
0 1
H 0.0000000000 0.0000000000 0.9833333333
H 0.0000000000 0.9083695334 -0.3306194719
O 0.0000000000 0.0000000000 0.0000000000
}

set scf_type pk
set basis 6-31g
gradient('hf')

--------------------------------------------------------------------------

    Molecular point group: cs
  Charge       = 0
  Multiplicity = 1
  Basis Set: 6-31G
    Blend: 6-31G

    Orbital Energies [Eh]
    ---------------------

    Doubly Occupied:

       1Ap   -20.559566     2Ap    -1.341127     3Ap    -0.709156
       4Ap    -0.547445     1App   -0.497564

  @RHF Final Energy:   -75.98400114157280

   => Energetics <=

    Nuclear Repulsion Energy =              9.0158473759542357
    One-Electron Energy =                -122.6899820793374403
    Two-Electron Energy =                  37.6901335618103985
    Total Energy =                        -75.9840011415728043

  Dipole Moment: [D]
     X:    -2.0744      Y:    -1.4647      Z:     0.0000     Total:     2.5394

    Molecular point group: cs

    Geometry (in Angstrom), charge = 0, multiplicity = 1:

       Center              X                  Y                   Z               Mass
    ------------   -----------------  -----------------  -----------------  -----------------
         H            0.050830030615    -0.946809138754     0.000000000000     1.007825032230
         H           -0.857539502785     0.367143666446     0.000000000000     1.007825032230
         O            0.050830030615     0.036524194546     0.000000000000    15.994914619570

  Basis Set: 6-31G
    Blend: 6-31G

  -Total Gradient:
     Atom            X                  Y                   Z
    ------   -----------------  -----------------  -----------------
       1       -0.000593953775    -0.032374250722     0.000000000000
       2       -0.015671467792     0.005060976868     0.000000000000
       3        0.016265421568     0.027313273854     0.000000000000

*** Psi4 exiting successfully. Buy a developer a beer!
