                               Psi4 1.3.2 release

  ==> Input File <==

--------------------------------------------------------------------------
# density fitted hartree fock
molecule h2o {
0 1
H 0.0000000000 0.0000000000 0.9000000000
H 0.0000000000 0.8263944962 -0.3564717894
O 0.0000000000 0.0000000000 0.0000000000
}

set scf_type pk
set basis 6-31g
gradient('hf')

--------------------------------------------------------------------------

    Molecular point group: c2v
  Charge       = 0
  Multiplicity = 1
  Basis Set: 6-31G
    Blend: 6-31G

    Orbital Energies [Eh]
    ---------------------

    Doubly Occupied:

       1A1   -20.542794     2A1    -1.378739     1B2    -0.760372
       3A1    -0.552178     1B1    -0.501186

  @RHF Final Energy:   -75.97970881159381

   => Energetics <=

    Nuclear Repulsion Energy =              9.7594699349383554
    One-Electron Energy =                -124.0078199142575244
    Two-Electron Energy =                  38.2686411677253631
    Total Energy =                        -75.9797088115938095

  Dipole Moment: [D]
     X:    -0.0000      Y:     0.0000      Z:     2.4415     Total:     2.4415

    Molecular point group: c2v

    Geometry (in Angstrom), charge = 0, multiplicity = 1:

       Center              X                  Y                   Z               Mass
    ------------   -----------------  -----------------  -----------------  -----------------
         H            0.000000000000    -0.751939030259     0.439209675389     1.007825032230
         H           -0.000000000000     0.751939030259     0.439209675389     1.007825032230
         O           -0.000000000000     0.000000000000    -0.055348404888    15.994914619570

  Basis Set: 6-31G
    Blend: 6-31G

  -Total Gradient:
     Atom            X                  Y                   Z
    ------   -----------------  -----------------  -----------------
       1       -0.000000000000     0.054398318626    -0.034349675857
       2        0.000000000000    -0.054398318626    -0.034349675857
       3        0.000000000000     0.000000000000     0.068699351714

*** Psi4 exiting successfully. Buy a developer a beer!
