                               Psi4 1.2.1 release

  ==> Input File <==

--------------------------------------------------------------------------
# density-fitted hartree fock energies and gradients with 6-31g
molecule h2o {
0 1
H 0.0000000000 0.0000000000 0.9500000000
H 0.0000000000 0.9176295350 -0.2458780928
O 0.0000000000 0.0000000000 0.0000000000
}

set basis 6-31g

gradient('mp2')
--------------------------------------------------------------------------

    Molecular point group: c2v
  Charge       = 0
  Multiplicity = 1
  Basis Set: 6-31G
    Blend: 6-31G
  Basis Set: (6-31G AUX)
    Blend: CC-PVDZ-JKFIT

    Orbital Energies [Eh]
    ---------------------

    Doubly Occupied:

       1A1   -20.558582     2A1    -1.359749     1B2    -0.715161
       3A1    -0.560750     1B1    -0.501546

  @DF-RHF Final Energy:   -75.98415115757979

   => Energetics <=

    Nuclear Repulsion Energy =              9.2635178675427596
    One-Electron Energy =                -123.1037613327786175
    Two-Electron Energy =                  37.8560923076560698
    Total Energy =                        -75.9841511575797881

  Dipole Moment: [D]
     X:    -0.0000      Y:     0.0000      Z:     2.6190     Total:     2.6190

  Basis Set: (6-31G AUX)
    Blend: CC-PVDZ-RI
    Molecular point group: c2v

    Geometry (in Angstrom), charge = 0, multiplicity = 1:

       Center              X                  Y                   Z               Mass
    ------------   -----------------  -----------------  -----------------  -----------------
         H            0.000000000000    -0.753685673266     0.513600372308     1.007825032070
         H           -0.000000000000     0.753685673266     0.513600372308     1.007825032070
         O           -0.000000000000     0.000000000000    -0.064722985274    15.994914619560

  Basis Set: 6-31G
    Blend: 6-31G
  Basis Set: (6-31G AUX)
    Blend: CC-PVDZ-JKFIT
  Basis Set: (6-31G AUX)
    Blend: CC-PVDZ-JKFIT
	 Reference Energy          =     -75.9841511575797881 [Eh]
	 Singles Energy            =      -0.0000000000000000 [Eh]
	 Same-Spin Energy          =      -0.0299999875602434 [Eh]
	 Opposite-Spin Energy      =      -0.0980898950605842 [Eh]
	 Correlation Energy        =      -0.1280898826208276 [Eh]
	 Total Energy              =     -76.1122410402006153 [Eh]

	 ================> DF-SCS-MP2 Energies <==================
	-----------------------------------------------------------
	 SCS Same-Spin Scale       =       0.3333333333333333 [-]
	 SCS Opposite-Spin Scale   =       1.2000000000000000 [-]
	 SCS Same-Spin Energy      =      -0.0099999958534145 [Eh]
	 SCS Opposite-Spin Energy  =      -0.1177078740727011 [Eh]
	 SCS Correlation Energy    =      -0.1277078699261155 [Eh]
	 SCS Total Energy          =     -76.1118590275059006 [Eh]
	-----------------------------------------------------------

  -Total Gradient:
     Atom            X                  Y                   Z
    ------   -----------------  -----------------  -----------------
       1        0.000000000000     0.028582775818    -0.009394876069
       2       -0.000000000000    -0.028582775825    -0.009394876075
       3        0.000000000000     0.000000000007     0.018789752144

*** Psi4 exiting successfully. Buy a developer a beer!
