                               Psi4 1.3.2 release

  ==> Input File <==

--------------------------------------------------------------------------
# density fitted hartree fock
molecule h2o {
0 1
H 0.0000000000 0.0000000000 0.9333333333
H 0.0000000000 0.9260565286 -0.2772431250
O 0.0000000000 0.0000000000 0.0000000000
}

set scf_type pk
set basis 6-31g
gradient('hf')

--------------------------------------------------------------------------

    Molecular point group: cs
  Charge       = 0
  Multiplicity = 1
  Basis Set: 6-31G
    Blend: 6-31G

    Orbital Energies [Eh]
    ---------------------

    Doubly Occupied:

       1Ap   -20.557317     2Ap    -1.358148     3Ap    -0.718130
       4Ap    -0.557464     1App   -0.500759

  @RHF Final Energy:   -75.98411022467077

   => Energetics <=

    Nuclear Repulsion Energy =              9.2623940357178860
    One-Electron Energy =                -123.1093714005174888
    Two-Electron Energy =                  37.8628671401288273
    Total Energy =                        -75.9841102246707720

  Dipole Moment: [D]
     X:    -2.0880      Y:    -1.5323      Z:     0.0000     Total:     2.5899

    Molecular point group: cs

    Geometry (in Angstrom), charge = 0, multiplicity = 1:

       Center              X                  Y                   Z               Mass
    ------------   -----------------  -----------------  -----------------  -----------------
         H            0.051819749528    -0.896620207036     0.000000000000     1.007825032230
         H           -0.874236779072     0.313956251264     0.000000000000     1.007825032230
         O            0.051819749528     0.036713126264     0.000000000000    15.994914619570

  Basis Set: 6-31G
    Blend: 6-31G

  -Total Gradient:
     Atom            X                  Y                   Z
    ------   -----------------  -----------------  -----------------
       1       -0.008860991039     0.022973454670     0.000000000000
       2       -0.016631466673    -0.003951484117     0.000000000000
       3        0.025492457712    -0.019021970554     0.000000000000

*** Psi4 exiting successfully. Buy a developer a beer!
