                               Psi4 1.3.2 release

  ==> Input File <==

--------------------------------------------------------------------------
# density fitted hartree fock
molecule h2o {
0 1
H 0.0000000000 0.0000000000 0.9500000000
H 0.0000000000 0.9683942905 -0.1707540414
O 0.0000000000 0.0000000000 0.0000000000
}

set scf_type pk
set basis 6-31g
gradient('hf')

--------------------------------------------------------------------------

    Molecular point group: cs
  Charge       = 0
  Multiplicity = 1
  Basis Set: 6-31G
    Blend: 6-31G

    Orbital Energies [Eh]
    ---------------------

    Doubly Occupied:

       1Ap   -20.565557     2Ap    -1.356796     3Ap    -0.696981
       4Ap    -0.567940     1App   -0.503128

  @RHF Final Energy:   -75.98094593503218

   => Energetics <=

    Nuclear Repulsion Energy =              9.1186683807225748
    One-Electron Energy =                -122.8184262330282195
    Two-Electron Energy =                  37.7188119172734773
    Total Energy =                        -75.9809459350321674

  Dipole Moment: [D]
     X:    -2.0804      Y:    -1.7335      Z:     0.0000     Total:     2.7080

    Molecular point group: cs

    Geometry (in Angstrom), charge = 0, multiplicity = 1:

       Center              X                  Y                   Z               Mass
    ------------   -----------------  -----------------  -----------------  -----------------
         H            0.054188862157    -0.906395393642     0.000000000000     1.007825032230
         H           -0.914205428343     0.214358647758     0.000000000000     1.007825032230
         O            0.054188862157     0.043604606358     0.000000000000    15.994914619570

  Basis Set: 6-31G
    Blend: 6-31G

  -Total Gradient:
     Atom            X                  Y                   Z
    ------   -----------------  -----------------  -----------------
       1       -0.020296168343     0.008111492845     0.000000000000
       2       -0.028223112808    -0.014934153036     0.000000000000
       3        0.048519281151     0.006822660191     0.000000000000

*** Psi4 exiting successfully. Buy a developer a beer!
