                               Psi4 1.3.1 release

  ==> Input File <==

--------------------------------------------------------------------------
# density fitted hartree fock
molecule h2o {
0 1
H 0.0000000000 0.0000000000 1.2000000000
H 0.0000000000 1.0815005048 -0.0629902313
O 0.0000000000 0.0000000000 0.0000000000
}

set basis 6-31g
energy('hf')

--------------------------------------------------------------------------

    Molecular point group: cs

    Geometry (in Angstrom), charge = 0, multiplicity = 1:

       Center              X                  Y                   Z               Mass
    ------------   -----------------  -----------------  -----------------  -----------------
         H            0.060517995978    -1.136375847904     0.000000000000     1.007825032230
         H           -1.020982508822     0.126614383396     0.000000000000     1.007825032230
         O            0.060517995978     0.063624152096     0.000000000000    15.994914619570

  Charge       = 0
  Multiplicity = 1
  Basis Set: 6-31G
    Blend: 6-31G
  Basis Set: (6-31G AUX)
    Blend: CC-PVDZ-JKFIT

    Orbital Energies [Eh]
    ---------------------

    Doubly Occupied:

       1Ap   -20.604462     2Ap    -1.291575     3Ap    -0.610186
       4Ap    -0.549805     1App   -0.502650

  @DF-RHF Final Energy:   -75.93154256475435

   => Energetics <=

    Nuclear Repulsion Energy =              7.7538695823153976
    One-Electron Energy =                -120.2534597506594309
    Two-Electron Energy =                  36.5680476035896689
    Total Energy =                        -75.9315425647543520

  Dipole Moment: [D]
     X:    -2.0730      Y:    -1.9116      Z:     0.0000     Total:     2.8199

*** Psi4 exiting successfully. Buy a developer a beer!
