                               Psi4 1.3.2 release

  ==> Input File <==

--------------------------------------------------------------------------
# density fitted hartree fock
molecule h2o {
0 1
H 0.0000000000 0.0000000000 0.9333333333
H 0.0000000000 0.8263944962 -0.3564717894
O 0.0000000000 0.0000000000 0.0000000000
}

set scf_type pk
set basis 6-31g
gradient('hf')

--------------------------------------------------------------------------

    Molecular point group: cs
  Charge       = 0
  Multiplicity = 1
  Basis Set: 6-31G
    Blend: 6-31G

    Orbital Energies [Eh]
    ---------------------

    Doubly Occupied:

       1Ap   -20.545874     2Ap    -1.369211     3Ap    -0.749644
       4Ap    -0.549664     1App   -0.499839

  @RHF Final Energy:   -75.98221930568623

   => Energetics <=

    Nuclear Repulsion Energy =              9.5850547416811125
    One-Electron Energy =                -123.7060841999596619
    Two-Electron Energy =                  38.1388101525923133
    Total Energy =                        -75.9822193056862289

  Dipole Moment: [D]
     X:    -2.0322      Y:    -1.3694      Z:     0.0000     Total:     2.4505

    Molecular point group: cs

    Geometry (in Angstrom), charge = 0, multiplicity = 1:

       Center              X                  Y                   Z               Mass
    ------------   -----------------  -----------------  -----------------  -----------------
         H            0.046242917664    -0.901053640005     0.000000000000     1.007825032230
         H           -0.780151578536     0.388751482695     0.000000000000     1.007825032230
         O            0.046242917664     0.032279693295     0.000000000000    15.994914619570

  Basis Set: 6-31G
    Blend: 6-31G

  -Total Gradient:
     Atom            X                  Y                   Z
    ------   -----------------  -----------------  -----------------
       1        0.000317946132     0.017188489371     0.000000000000
       2        0.059828537376    -0.025448422865     0.000000000000
       3       -0.060146483508     0.008259933495     0.000000000000

*** Psi4 exiting successfully. Buy a developer a beer!
