                               Psi4 1.3.2 release

  ==> Input File <==

--------------------------------------------------------------------------
# density fitted hartree fock
molecule h2o {
noreorient
nocom
0 1
H 0.0000000000 0.0000000000 1.0000000000
H 0.0000000000 0.8489510083 -0.4263592212
O 0.0000000000 0.0000000000 0.0000000000
}

set scf_type pk
set basis 6-31g
gradient('hf')

--------------------------------------------------------------------------

    Molecular point group: cs
  Charge       = 0
  Multiplicity = 1
  Basis Set: 6-31G
    Blend: 6-31G

    Orbital Energies [Eh]
    ---------------------

    Doubly Occupied:

       1Ap   -20.553817     2Ap    -1.334521     3Ap    -0.718751
       4Ap    -0.534805     1App   -0.493898

  @RHF Final Energy:   -75.98196473544867

   => Energetics <=

    Nuclear Repulsion Energy =              9.0084503525939894
    One-Electron Energy =                -122.7092465584520085
    Two-Electron Energy =                  37.7188314704093486
    Total Energy =                        -75.9819647354486563

  Dipole Moment: [D]
     X:     0.0000      Y:     2.0292      Z:     1.3004     Total:     2.4102

    Molecular point group: cs

    Geometry (in Angstrom), charge = 0, multiplicity = 1:

       Center              X                  Y                   Z               Mass
    ------------   -----------------  -----------------  -----------------  -----------------
         H            0.000000000000     0.000000000000     1.000000000000     1.007825032230
         H            0.000000000000     0.848951008300    -0.426359221200     1.007825032230
         O            0.000000000000     0.000000000000     0.000000000000    15.994914619570

  Basis Set: 6-31G
    Blend: 6-31G

  -Total Gradient:
     Atom            X                  Y                   Z
    ------   -----------------  -----------------  -----------------
       1        0.000000000000    -0.009659164928     0.050896341834
       2        0.000000000000    -0.002252379392    -0.010246575483
       3        0.000000000000     0.011911544320    -0.040649766351

*** Psi4 exiting successfully. Buy a developer a beer!
