                               Psi4 1.2.1 release

  ==> Input File <==

--------------------------------------------------------------------------
# density-fitted hartree fock energies and gradients with 6-31g
molecule h2o {
0 1
H 0.0000000000 0.0000000000 1.1000000000
H 0.0000000000 1.1276311449 -0.4104241720
O 0.0000000000 0.0000000000 0.0000000000
}

set basis 6-31g

gradient('mp2')
--------------------------------------------------------------------------

    Molecular point group: cs
  Charge       = 0
  Multiplicity = 1
  Basis Set: 6-31G
    Blend: 6-31G
  Basis Set: (6-31G AUX)
    Blend: CC-PVDZ-JKFIT

    Orbital Energies [Eh]
    ---------------------

    Doubly Occupied:

       1Ap   -20.591537     2Ap    -1.273668     3Ap    -0.623433
       4Ap    -0.521037     1App   -0.492181

  @DF-RHF Final Energy:   -75.93043630707547

   => Energetics <=

    Nuclear Repulsion Energy =              7.6571517177592057
    One-Electron Energy =                -120.1714661678930014
    Two-Electron Energy =                  36.5838781430583211
    Total Energy =                        -75.9304363070754675

  Dipole Moment: [D]
     X:    -2.1009      Y:    -1.4459      Z:     0.0000     Total:     2.5504

  Basis Set: (6-31G AUX)
    Blend: CC-PVDZ-RI
    Molecular point group: cs

    Geometry (in Angstrom), charge = 0, multiplicity = 1:

       Center              X                  Y                   Z               Mass
    ------------   -----------------  -----------------  -----------------  -----------------
         H            0.063099348340    -1.061413104299     0.000000000000     1.007825032070
         H           -1.064531796560     0.449011067701     0.000000000000     1.007825032070
         O            0.063099348340     0.038586895701     0.000000000000    15.994914619560

  Basis Set: 6-31G
    Blend: 6-31G
  Basis Set: (6-31G AUX)
    Blend: CC-PVDZ-JKFIT
  Basis Set: (6-31G AUX)
    Blend: CC-PVDZ-JKFIT
	 Reference Energy          =     -75.9304363070754675 [Eh]
	 Singles Energy            =      -0.0000000000000000 [Eh]
	 Same-Spin Energy          =      -0.0337959149877090 [Eh]
	 Opposite-Spin Energy      =      -0.1122324097115697 [Eh]
	 Correlation Energy        =      -0.1460283246992787 [Eh]
	 Total Energy              =     -76.0764646317747406 [Eh]

	 ================> DF-SCS-MP2 Energies <==================
	-----------------------------------------------------------
	 SCS Same-Spin Scale       =       0.3333333333333333 [-]
	 SCS Opposite-Spin Scale   =       1.2000000000000000 [-]
	 SCS Same-Spin Energy      =      -0.0112653049959030 [Eh]
	 SCS Opposite-Spin Energy  =      -0.1346788916538836 [Eh]
	 SCS Correlation Energy    =      -0.1459441966497866 [Eh]
	 SCS Total Energy          =     -76.0763805037252610 [Eh]
	-----------------------------------------------------------

  -Total Gradient:
     Atom            X                  Y                   Z
    ------   -----------------  -----------------  -----------------
       1        0.012601636610    -0.072352085731    -0.000000000000
       2       -0.089849083043     0.044995239363    -0.000000000000
       3        0.077247446433     0.027356846368     0.000000000000

*** Psi4 exiting successfully. Buy a developer a beer!
