                               Psi4 1.2.1 release

  ==> Input File <==

--------------------------------------------------------------------------
# density-fitted hartree fock energies and gradients with 6-31g
molecule h2o {
0 1
H 0.0000000000 0.0000000000 1.0500000000
H 0.0000000000 1.1108147002 -0.2976419019
O 0.0000000000 0.0000000000 0.0000000000
}

set basis 6-31g

gradient('mp2')
--------------------------------------------------------------------------

    Molecular point group: cs
  Charge       = 0
  Multiplicity = 1
  Basis Set: 6-31G
    Blend: 6-31G
  Basis Set: (6-31G AUX)
    Blend: CC-PVDZ-JKFIT

    Orbital Energies [Eh]
    ---------------------

    Doubly Occupied:

       1Ap   -20.587296     2Ap    -1.294739     3Ap    -0.640065
       4Ap    -0.537332     1App   -0.496170

  @DF-RHF Final Energy:   -75.95073985145225

   => Energetics <=

    Nuclear Repulsion Energy =              8.0160627108596536
    One-Electron Energy =                -120.8224020342753562
    Two-Electron Energy =                  36.8555994719634441
    Total Energy =                        -75.9507398514522549

  Dipole Moment: [D]
     X:    -2.1076      Y:    -1.5973      Z:     0.0000     Total:     2.6445

  Basis Set: (6-31G AUX)
    Blend: CC-PVDZ-RI
    Molecular point group: cs

    Geometry (in Angstrom), charge = 0, multiplicity = 1:

       Center              X                  Y                   Z               Mass
    ------------   -----------------  -----------------  -----------------  -----------------
         H            0.062158343201    -1.007899969398     0.000000000000     1.007825032070
         H           -1.048656356999     0.339741932502     0.000000000000     1.007825032070
         O            0.062158343201     0.042100030602     0.000000000000    15.994914619560

  Basis Set: 6-31G
    Blend: 6-31G
  Basis Set: (6-31G AUX)
    Blend: CC-PVDZ-JKFIT
  Basis Set: (6-31G AUX)
    Blend: CC-PVDZ-JKFIT
	 Reference Energy          =     -75.9507398514522549 [Eh]
	 Singles Energy            =      -0.0000000000000000 [Eh]
	 Same-Spin Energy          =      -0.0329442826731469 [Eh]
	 Opposite-Spin Energy      =      -0.1089560257132494 [Eh]
	 Correlation Energy        =      -0.1419003083863963 [Eh]
	 Total Energy              =     -76.0926401598386519 [Eh]

	 ================> DF-SCS-MP2 Energies <==================
	-----------------------------------------------------------
	 SCS Same-Spin Scale       =       0.3333333333333333 [-]
	 SCS Opposite-Spin Scale   =       1.2000000000000000 [-]
	 SCS Same-Spin Energy      =      -0.0109814275577156 [Eh]
	 SCS Opposite-Spin Energy  =      -0.1307472308558993 [Eh]
	 SCS Correlation Energy    =      -0.1417286584136149 [Eh]
	 SCS Total Energy          =     -76.0924685098658671 [Eh]
	-----------------------------------------------------------

  -Total Gradient:
     Atom            X                  Y                   Z
    ------   -----------------  -----------------  -----------------
       1        0.003294444084    -0.048155180196     0.000000000000
       2       -0.084873057474     0.025855746100     0.000000000000
       3        0.081578613390     0.022299434096    -0.000000000000

*** Psi4 exiting successfully. Buy a developer a beer!
