                               Psi4 1.3.2 release

  ==> Input File <==

--------------------------------------------------------------------------
# density fitted hartree fock
molecule h2o {
0 1
H 0.0000000000 0.0000000000 0.9500000000
H 0.0000000000 0.8927079897 -0.3249191362
O 0.0000000000 0.0000000000 0.0000000000
}

set scf_type pk
set basis 6-31g
gradient('hf')

--------------------------------------------------------------------------

    Molecular point group: c2v
  Charge       = 0
  Multiplicity = 1
  Basis Set: 6-31G
    Blend: 6-31G

    Orbital Energies [Eh]
    ---------------------

    Doubly Occupied:

       1A1   -20.554777     2A1    -1.354065     1B2    -0.723676
       3A1    -0.551124     1B1    -0.499064

  @RHF Final Energy:   -75.98529570018336

   => Energetics <=

    Nuclear Repulsion Energy =              9.2524614912849863
    One-Electron Energy =                -123.1101010876427324
    Two-Electron Energy =                  37.8723438961743923
    Total Energy =                        -75.9852957001833431

  Dipole Moment: [D]
     X:    -0.0000      Y:     0.0000      Z:     2.5297     Total:     2.5297

    Molecular point group: c2v

    Geometry (in Angstrom), charge = 0, multiplicity = 1:

       Center              X                  Y                   Z               Mass
    ------------   -----------------  -----------------  -----------------  -----------------
         H            0.000000000000    -0.778194442078     0.483915467021     1.007825032230
         H           -0.000000000000     0.778194442078     0.483915467021     1.007825032230
         O           -0.000000000000     0.000000000000    -0.060982147482    15.994914619570

  Basis Set: 6-31G
    Blend: 6-31G

  -Total Gradient:
     Atom            X                  Y                   Z
    ------   -----------------  -----------------  -----------------
       1       -0.000000000000     0.002053572751     0.001802925149
       2        0.000000000000    -0.002053572751     0.001802925149
       3        0.000000000000     0.000000000000    -0.003605850299

*** Psi4 exiting successfully. Buy a developer a beer!
