                               Psi4 1.3.2 release

  ==> Input File <==

--------------------------------------------------------------------------
memory 20 GB

molecule h2 {
0 1
symmetry c1
H 0.0 0.0 0.9
H 0.0 0.0 0.0
}

set basis cc-pv6z
set puream false
set scf_type pk

energy('hf')
--------------------------------------------------------------------------

    Molecular point group: c1

    Geometry (in Angstrom), charge = 0, multiplicity = 1:

       Center              X                  Y                   Z               Mass
    ------------   -----------------  -----------------  -----------------  -----------------
         H            0.000000000000     0.000000000000     0.450000000000     1.007825032230
         H            0.000000000000     0.000000000000    -0.450000000000     1.007825032230

  Charge       = 0
  Multiplicity = 1
  Basis Set: CC-PV6Z
    Blend: CC-PV6Z

    Orbital Energies [Eh]
    ---------------------

    Doubly Occupied:

       1A     -0.550191

  @RHF Final Energy:    -1.11928626963022

   => Energetics <=

    Nuclear Repulsion Energy =              0.5879746785222223
    One-Electron Energy =                  -2.3141375974823659
    Two-Electron Energy =                   0.6068766493299260
    Total Energy =                         -1.1192862696302175

  Dipole Moment: [D]
     X:    -0.0000      Y:    -0.0000      Z:    -0.0000     Total:     0.0000

*** Psi4 exiting successfully. Buy a developer a beer!
