                               Psi4 1.3.2 release

  ==> Input File <==

--------------------------------------------------------------------------
# density fitted hartree fock
molecule h2o {
0 1
H 0.0000000000 0.0000000000 0.9000000000
H 0.0000000000 0.8570016998 -0.3696744483
O 0.0000000000 0.0000000000 0.0000000000
}

set scf_type pk
set basis 6-31g
gradient('hf')

--------------------------------------------------------------------------

    Molecular point group: cs
  Charge       = 0
  Multiplicity = 1
  Basis Set: 6-31G
    Blend: 6-31G

    Orbital Energies [Eh]
    ---------------------

    Doubly Occupied:

       1Ap   -20.545874     2Ap    -1.369211     3Ap    -0.749644
       4Ap    -0.549664     1App   -0.499839

  @RHF Final Energy:   -75.98221930568936

   => Energetics <=

    Nuclear Repulsion Energy =              9.5850547412712466
    One-Electron Energy =                -123.7060841992499434
    Two-Electron Energy =                  38.1388101522893308
    Total Energy =                        -75.9822193056893695

  Dipole Moment: [D]
     X:    -2.0623      Y:    -1.3236      Z:     0.0000     Total:     2.4505

    Molecular point group: cs

    Geometry (in Angstrom), charge = 0, multiplicity = 1:

       Center              X                  Y                   Z               Mass
    ------------   -----------------  -----------------  -----------------  -----------------
         H            0.047955618320    -0.870324341540     0.000000000000     1.007825032230
         H           -0.809046081480     0.399350106760     0.000000000000     1.007825032230
         O            0.047955618320     0.029675658460     0.000000000000    15.994914619570

  Basis Set: 6-31G
    Blend: 6-31G

  -Total Gradient:
     Atom            X                  Y                   Z
    ------   -----------------  -----------------  -----------------
       1        0.000329721319     0.065015132034     0.000000000000
       2        0.015908679740    -0.006516069547     0.000000000000
       3       -0.016238401059    -0.058499062487     0.000000000000

*** Psi4 exiting successfully. Buy a developer a beer!
