                               Psi4 1.3.2 release

  ==> Input File <==

--------------------------------------------------------------------------
# density fitted hartree fock
molecule h2o {
0 1
H 0.0000000000 0.0000000000 0.9500000000
H 0.0000000000 0.8042693763 -0.4039192622
O 0.0000000000 0.0000000000 0.0000000000
}

set scf_type pk
set basis 6-31g
gradient('hf')

--------------------------------------------------------------------------

    Molecular point group: cs
  Charge       = 0
  Multiplicity = 1
  Basis Set: 6-31G
    Blend: 6-31G

    Orbital Energies [Eh]
    ---------------------

    Doubly Occupied:

       1Ap   -20.544786     2Ap    -1.361030     3Ap    -0.749640
       4Ap    -0.542157     1App   -0.497574

  @RHF Final Energy:   -75.98205294130135

   => Energetics <=

    Nuclear Repulsion Energy =              9.4960580532768653
    One-Electron Energy =                -123.5658462802807094
    Two-Electron Energy =                  38.0877352857024931
    Total Energy =                        -75.9820529413013475

  Dipole Moment: [D]
     X:    -2.0077      Y:    -1.2925      Z:     0.0000     Total:     2.3878

    Molecular point group: cs

    Geometry (in Angstrom), charge = 0, multiplicity = 1:

       Center              X                  Y                   Z               Mass
    ------------   -----------------  -----------------  -----------------  -----------------
         H            0.045004852669    -0.919442721712     0.000000000000     1.007825032230
         H           -0.759264523631     0.434476540488     0.000000000000     1.007825032230
         O            0.045004852669     0.030557278288     0.000000000000    15.994914619570

  Basis Set: 6-31G
    Blend: 6-31G

  -Total Gradient:
     Atom            X                  Y                   Z
    ------   -----------------  -----------------  -----------------
       1        0.006355776395    -0.004954371387     0.000000000000
       2        0.059495916495    -0.022372553825     0.000000000000
       3       -0.065851692890     0.027326925213     0.000000000000

*** Psi4 exiting successfully. Buy a developer a beer!
