                               Psi4 1.3.2 release

  ==> Input File <==

--------------------------------------------------------------------------
# density fitted hartree fock
molecule h2o {
0 1
H 0.0000000000 0.0000000000 0.9666666667
H 0.0000000000 0.9730448706 -0.2306158707
O 0.0000000000 0.0000000000 0.0000000000
}

set scf_type pk
set basis 6-31g
gradient('hf')

--------------------------------------------------------------------------

    Molecular point group: cs
  Charge       = 0
  Multiplicity = 1
  Basis Set: 6-31G
    Blend: 6-31G

    Orbital Energies [Eh]
    ---------------------

    Doubly Occupied:

       1Ap   -20.566466     2Ap    -1.344420     3Ap    -0.693923
       4Ap    -0.558953     1App   -0.500675

  @RHF Final Energy:   -75.98151640727627

   => Energetics <=

    Nuclear Repulsion Energy =              8.9558081832661252
    One-Electron Energy =                -122.5457745177836983
    Two-Electron Energy =                  37.6084499272413098
    Total Energy =                        -75.9815164072762599

  Dipole Moment: [D]
     X:    -2.0932      Y:    -1.6399      Z:     0.0000     Total:     2.6591

    Molecular point group: cs

    Geometry (in Angstrom), charge = 0, multiplicity = 1:

       Center              X                  Y                   Z               Mass
    ------------   -----------------  -----------------  -----------------  -----------------
         H            0.054449096698    -0.925479150916     0.000000000000     1.007825032230
         H           -0.918595773902     0.271803386484     0.000000000000     1.007825032230
         O            0.054449096698     0.041187515784     0.000000000000    15.994914619570

  Basis Set: 6-31G
    Blend: 6-31G

  -Total Gradient:
     Atom            X                  Y                   Z
    ------   -----------------  -----------------  -----------------
       1       -0.011964850150    -0.011806312370     0.000000000000
       2       -0.043148704909    -0.001659989741     0.000000000000
       3        0.055113555059     0.013466302111     0.000000000000

*** Psi4 exiting successfully. Buy a developer a beer!
