                               Psi4 1.2.1 release

  ==> Input File <==

--------------------------------------------------------------------------
# density-fitted hartree fock energies and gradients with 6-31g
molecule h2o {
0 1
H 0.0000000000 0.0000000000 1.0000000000
H 0.0000000000 1.0336618829 -0.3762221577
O 0.0000000000 0.0000000000 0.0000000000
}

set basis 6-31g

gradient('mp2')
--------------------------------------------------------------------------

    Molecular point group: cs
  Charge       = 0
  Multiplicity = 1
  Basis Set: 6-31G
    Blend: 6-31G
  Basis Set: (6-31G AUX)
    Blend: CC-PVDZ-JKFIT

    Orbital Energies [Eh]
    ---------------------

    Doubly Occupied:

       1Ap   -20.573449     2Ap    -1.309152     3Ap    -0.669649
       4Ap    -0.535798     1App   -0.494334

  @DF-RHF Final Energy:   -75.96620943030530

   => Energetics <=

    Nuclear Repulsion Energy =              8.3894302728182062
    One-Electron Energy =                -121.5465173121333038
    Two-Electron Energy =                  37.1908776090097959
    Total Energy =                        -75.9662094303052982

  Dipole Moment: [D]
     X:    -2.1186      Y:    -1.4303      Z:     0.0000     Total:     2.5562

  Basis Set: (6-31G AUX)
    Blend: CC-PVDZ-RI
    Molecular point group: cs

    Geometry (in Angstrom), charge = 0, multiplicity = 1:

       Center              X                  Y                   Z               Mass
    ------------   -----------------  -----------------  -----------------  -----------------
         H            0.057841069316    -0.965094990914     0.000000000000     1.007825032070
         H           -0.975820813584     0.411127166786     0.000000000000     1.007825032070
         O            0.057841069316     0.034905009086     0.000000000000    15.994914619560

  Basis Set: 6-31G
    Blend: 6-31G
  Basis Set: (6-31G AUX)
    Blend: CC-PVDZ-JKFIT
  Basis Set: (6-31G AUX)
    Blend: CC-PVDZ-JKFIT
	 Reference Energy          =     -75.9662094303052982 [Eh]
	 Singles Energy            =      -0.0000000000000000 [Eh]
	 Same-Spin Energy          =      -0.0319512680839422 [Eh]
	 Opposite-Spin Energy      =      -0.1047794553039646 [Eh]
	 Correlation Energy        =      -0.1367307233879068 [Eh]
	 Total Energy              =     -76.1029401536932113 [Eh]

	 ================> DF-SCS-MP2 Energies <==================
	-----------------------------------------------------------
	 SCS Same-Spin Scale       =       0.3333333333333333 [-]
	 SCS Opposite-Spin Scale   =       1.2000000000000000 [-]
	 SCS Same-Spin Energy      =      -0.0106504226946474 [Eh]
	 SCS Opposite-Spin Energy  =      -0.1257353463647576 [Eh]
	 SCS Correlation Energy    =      -0.1363857690594049 [Eh]
	 SCS Total Energy          =     -76.1025951993646999 [Eh]
	-----------------------------------------------------------

  -Total Gradient:
     Atom            X                  Y                   Z
    ------   -----------------  -----------------  -----------------
       1        0.007382368400    -0.019264076969     0.000000000000
       2       -0.071014004128     0.032988939687    -0.000000000000
       3        0.063631635728    -0.013724862719     0.000000000000

*** Psi4 exiting successfully. Buy a developer a beer!
