                               Psi4 1.2.1 release

  ==> Input File <==

--------------------------------------------------------------------------
# density-fitted hartree fock energies and gradients with 6-31g
molecule h2o {
0 1
H 0.0000000000 0.0000000000 0.9500000000
H 0.0000000000 1.0625184089 -0.2847009496
O 0.0000000000 0.0000000000 0.0000000000
}

set basis 6-31g

gradient('mp2')
--------------------------------------------------------------------------

    Molecular point group: cs
  Charge       = 0
  Multiplicity = 1
  Basis Set: 6-31G
    Blend: 6-31G
  Basis Set: (6-31G AUX)
    Blend: CC-PVDZ-JKFIT

    Orbital Energies [Eh]
    ---------------------

    Doubly Occupied:

       1Ap   -20.572725     2Ap    -1.327821     3Ap    -0.676747
       4Ap    -0.547812     1App   -0.498444

  @DF-RHF Final Energy:   -75.96816131088046

   => Energetics <=

    Nuclear Repulsion Energy =              8.6296513346733086
    One-Electron Energy =                -121.9485286378775442
    Two-Electron Energy =                  37.3507159923237708
    Total Energy =                        -75.9681613108804612

  Dipole Moment: [D]
     X:    -2.1224      Y:    -1.5668      Z:     0.0000     Total:     2.6381

  Basis Set: (6-31G AUX)
    Blend: CC-PVDZ-RI
    Molecular point group: cs

    Geometry (in Angstrom), charge = 0, multiplicity = 1:

       Center              X                  Y                   Z               Mass
    ------------   -----------------  -----------------  -----------------  -----------------
         H            0.059455806541    -0.912771570543     0.000000000000     1.007825032070
         H           -1.003062602359     0.321929379057     0.000000000000     1.007825032070
         O            0.059455806541     0.037228429457     0.000000000000    15.994914619560

  Basis Set: 6-31G
    Blend: 6-31G
  Basis Set: (6-31G AUX)
    Blend: CC-PVDZ-JKFIT
  Basis Set: (6-31G AUX)
    Blend: CC-PVDZ-JKFIT
	 Reference Energy          =     -75.9681613108804612 [Eh]
	 Singles Energy            =      -0.0000000000000000 [Eh]
	 Same-Spin Energy          =      -0.0314182216677803 [Eh]
	 Opposite-Spin Energy      =      -0.1033424164570423 [Eh]
	 Correlation Energy        =      -0.1347606381248226 [Eh]
	 Total Energy              =     -76.1029219490052782 [Eh]

	 ================> DF-SCS-MP2 Energies <==================
	-----------------------------------------------------------
	 SCS Same-Spin Scale       =       0.3333333333333333 [-]
	 SCS Opposite-Spin Scale   =       1.2000000000000000 [-]
	 SCS Same-Spin Energy      =      -0.0104727405559268 [Eh]
	 SCS Opposite-Spin Energy  =      -0.1240108997484507 [Eh]
	 SCS Correlation Energy    =      -0.1344836403043775 [Eh]
	 SCS Total Energy          =     -76.1026449511848426 [Eh]
	-----------------------------------------------------------

  -Total Gradient:
     Atom            X                  Y                   Z
    ------   -----------------  -----------------  -----------------
       1       -0.002419745724     0.031607275659    -0.000000000000
       2       -0.073564115158     0.017547944546    -0.000000000000
       3        0.075983860883    -0.049155220205     0.000000000000

*** Psi4 exiting successfully. Buy a developer a beer!
