                               Psi4 1.3.2 release

  ==> Input File <==

--------------------------------------------------------------------------
# density fitted hartree fock
molecule h2o {
0 1
H 0.0000000000 0.0000000000 0.9500000000
H 0.0000000000 0.8613849024 -0.3135184647
O 0.0000000000 0.0000000000 0.0000000000
}

set scf_type pk
set basis 6-31g
gradient('hf')

--------------------------------------------------------------------------

    Molecular point group: cs
  Charge       = 0
  Multiplicity = 1
  Basis Set: 6-31G
    Blend: 6-31G

    Orbital Energies [Eh]
    ---------------------

    Doubly Occupied:

       1Ap   -20.551553     2Ap    -1.363548     3Ap    -0.733694
       4Ap    -0.553523     1App   -0.500201

  @RHF Final Energy:   -75.98398268509013

   => Energetics <=

    Nuclear Repulsion Energy =              9.4205506230792544
    One-Electron Energy =                -123.4040289833192077
    Two-Electron Energy =                  37.9994956751498378
    Total Energy =                        -75.9839826850901261

  Dipole Moment: [D]
     X:    -2.0532      Y:    -1.4653      Z:     0.0000     Total:     2.5224

    Molecular point group: cs

    Geometry (in Angstrom), charge = 0, multiplicity = 1:

       Center              X                  Y                   Z               Mass
    ------------   -----------------  -----------------  -----------------  -----------------
         H            0.048200891102    -0.914384124813     0.000000000000     1.007825032230
         H           -0.813184011298     0.349134339887     0.000000000000     1.007825032230
         O            0.048200891102     0.035615875187     0.000000000000    15.994914619570

  Basis Set: 6-31G
    Blend: 6-31G

  -Total Gradient:
     Atom            X                  Y                   Z
    ------   -----------------  -----------------  -----------------
       1       -0.004037582586     0.000123613627     0.000000000000
       2        0.038654579743    -0.018522066739     0.000000000000
       3       -0.034616997156     0.018398453112     0.000000000000

*** Psi4 exiting successfully. Buy a developer a beer!
