                               Psi4 1.2.1 release

  ==> Input File <==

--------------------------------------------------------------------------
# density-fitted hartree fock energies and gradients with 6-31g
molecule h2o {
0 1
H 0.0000000000 0.0000000000 0.9000000000
H 0.0000000000 1.0806465139 -0.3933231648
O 0.0000000000 0.0000000000 0.0000000000
}

set basis 6-31g

gradient('mp2')
--------------------------------------------------------------------------

    Molecular point group: cs
  Charge       = 0
  Multiplicity = 1
  Basis Set: 6-31G
    Blend: 6-31G
  Basis Set: (6-31G AUX)
    Blend: CC-PVDZ-JKFIT

    Orbital Energies [Eh]
    ---------------------

    Doubly Occupied:

       1Ap   -20.567219     2Ap    -1.331815     3Ap    -0.686159
       4Ap    -0.536158     1App   -0.496209

  @DF-RHF Final Energy:   -75.95455634756263

   => Energetics <=

    Nuclear Repulsion Energy =              8.6990124413094527
    One-Electron Energy =                -122.0720182775241085
    Two-Electron Energy =                  37.4184494886520298
    Total Energy =                        -75.9545563475626295

  Dipole Moment: [D]
     X:    -2.1570      Y:    -1.3584      Z:     0.0000     Total:     2.5491

  Basis Set: (6-31G AUX)
    Blend: CC-PVDZ-RI
    Molecular point group: cs

    Geometry (in Angstrom), charge = 0, multiplicity = 1:

       Center              X                  Y                   Z               Mass
    ------------   -----------------  -----------------  -----------------  -----------------
         H            0.060470208828    -0.871647663099     0.000000000000     1.007825032070
         H           -1.020176305072     0.421675501701     0.000000000000     1.007825032070
         O            0.060470208828     0.028352336901     0.000000000000    15.994914619560

  Basis Set: 6-31G
    Blend: 6-31G
  Basis Set: (6-31G AUX)
    Blend: CC-PVDZ-JKFIT
  Basis Set: (6-31G AUX)
    Blend: CC-PVDZ-JKFIT
	 Reference Energy          =     -75.9545563475626295 [Eh]
	 Singles Energy            =      -0.0000000000000000 [Eh]
	 Same-Spin Energy          =      -0.0312297024511614 [Eh]
	 Opposite-Spin Energy      =      -0.1027785897094814 [Eh]
	 Correlation Energy        =      -0.1340082921606428 [Eh]
	 Total Energy              =     -76.0885646397232733 [Eh]

	 ================> DF-SCS-MP2 Energies <==================
	-----------------------------------------------------------
	 SCS Same-Spin Scale       =       0.3333333333333333 [-]
	 SCS Opposite-Spin Scale   =       1.2000000000000000 [-]
	 SCS Same-Spin Energy      =      -0.0104099008170538 [Eh]
	 SCS Opposite-Spin Energy  =      -0.1233343076513777 [Eh]
	 SCS Correlation Energy    =      -0.1337442084684315 [Eh]
	 SCS Total Energy          =     -76.0883005560310579 [Eh]
	-----------------------------------------------------------

  -Total Gradient:
     Atom            X                  Y                   Z
    ------   -----------------  -----------------  -----------------
       1        0.006564607094     0.097144221032     0.000000000000
       2       -0.088379754717     0.037634832330    -0.000000000000
       3        0.081815147623    -0.134779053363     0.000000000000

*** Psi4 exiting successfully. Buy a developer a beer!
