                               Psi4 1.3.2 release

  ==> Input File <==

--------------------------------------------------------------------------
# density fitted hartree fock
molecule h2o {
noreorient
nocom
0 1
H 0.0000000000 0.0000000000 0.9546306473
H 0.0000000000 0.8831858174 -0.3489716005
O 0.0000000000 0.0000000000 0.0000000000
}

set scf_type pk
set basis 6-31g
set e_convergence 10
gradient('hf')

--------------------------------------------------------------------------

    Molecular point group: cs
  Charge       = 0
  Multiplicity = 1
  Basis Set: 6-31G
    Blend: 6-31G

    Orbital Energies [Eh]
    ---------------------

    Doubly Occupied:

       1Ap   -20.553947     2Ap    -1.351185     3Ap    -0.724908
       4Ap    -0.547840     1App   -0.498127

  @RHF Final Energy:   -75.98533285758428

   => Energetics <=

    Nuclear Repulsion Energy =              9.2286443723757294
    One-Electron Energy =                -123.0759412862148992
    Two-Electron Energy =                  37.8619640562548909
    Total Energy =                        -75.9853328575842824

  Dipole Moment: [D]
     X:     0.0000      Y:     2.0664      Z:     1.4096     Total:     2.5014

    Molecular point group: cs

    Geometry (in Angstrom), charge = 0, multiplicity = 1:

       Center              X                  Y                   Z               Mass
    ------------   -----------------  -----------------  -----------------  -----------------
         H            0.000000000000     0.000000000000     0.954630647300     1.007825032230
         H            0.000000000000     0.883185817400    -0.348971600500     1.007825032230
         O            0.000000000000     0.000000000000     0.000000000000    15.994914619570

  Basis Set: 6-31G
    Blend: 6-31G

  -Total Gradient:
     Atom            X                  Y                   Z
    ------   -----------------  -----------------  -----------------
       1        0.000000000000    -0.000228595164     0.005527277263
       2        0.000000000000    -0.000156195733    -0.000185369741
       3        0.000000000000     0.000384790897    -0.005341907522

*** Psi4 exiting successfully. Buy a developer a beer!
