                               Psi4 1.2.1 release

  ==> Input File <==

--------------------------------------------------------------------------
# density-fitted hartree fock energies and gradients with 6-31g
molecule h2o {
0 1
H 0.0000000000 0.0000000000 1.1000000000
H 0.0000000000 1.1591109915 -0.3105828541
O 0.0000000000 0.0000000000 0.0000000000
}

set basis 6-31g

gradient('mp2')
--------------------------------------------------------------------------

    Molecular point group: cs
  Charge       = 0
  Multiplicity = 1
  Basis Set: 6-31G
    Blend: 6-31G
  Basis Set: (6-31G AUX)
    Blend: CC-PVDZ-JKFIT

    Orbital Energies [Eh]
    ---------------------

    Doubly Occupied:

       1Ap   -20.596348     2Ap    -1.278167     3Ap    -0.618703
       4Ap    -0.529600     1App   -0.495548

  @DF-RHF Final Energy:   -75.93147528940466

   => Energetics <=

    Nuclear Repulsion Energy =              7.6662540881835977
    One-Electron Energy =                -120.1587268577920327
    Two-Electron Energy =                  36.5609974802037812
    Total Energy =                        -75.9314752894046592

  Dipole Moment: [D]
     X:    -2.0956      Y:    -1.6018      Z:     0.0000     Total:     2.6377

  Basis Set: (6-31G AUX)
    Blend: CC-PVDZ-RI
    Molecular point group: cs

    Geometry (in Angstrom), charge = 0, multiplicity = 1:

       Center              X                  Y                   Z               Mass
    ------------   -----------------  -----------------  -----------------  -----------------
         H            0.064860879861    -1.055826240079     0.000000000000     1.007825032070
         H           -1.094250111639     0.354756614021     0.000000000000     1.007825032070
         O            0.064860879861     0.044173759921     0.000000000000    15.994914619560

  Basis Set: 6-31G
    Blend: 6-31G
  Basis Set: (6-31G AUX)
    Blend: CC-PVDZ-JKFIT
  Basis Set: (6-31G AUX)
    Blend: CC-PVDZ-JKFIT
	 Reference Energy          =     -75.9314752894046592 [Eh]
	 Singles Energy            =      -0.0000000000000000 [Eh]
	 Same-Spin Energy          =      -0.0338918668318226 [Eh]
	 Opposite-Spin Energy      =      -0.1128074136620346 [Eh]
	 Correlation Energy        =      -0.1466992804938572 [Eh]
	 Total Energy              =     -76.0781745698985219 [Eh]

	 ================> DF-SCS-MP2 Energies <==================
	-----------------------------------------------------------
	 SCS Same-Spin Scale       =       0.3333333333333333 [-]
	 SCS Opposite-Spin Scale   =       1.2000000000000000 [-]
	 SCS Same-Spin Energy      =      -0.0112972889439409 [Eh]
	 SCS Opposite-Spin Energy  =      -0.1353688963944415 [Eh]
	 SCS Correlation Energy    =      -0.1466661853383823 [Eh]
	 SCS Total Energy          =     -76.0781414747430347 [Eh]
	-----------------------------------------------------------

  -Total Gradient:
     Atom            X                  Y                   Z
    ------   -----------------  -----------------  -----------------
       1        0.006178405247    -0.069833159899    -0.000000000000
       2       -0.092482417990     0.030643912780    -0.000000000000
       3        0.086304012743     0.039189247119     0.000000000000

*** Psi4 exiting successfully. Buy a developer a beer!
