                               Psi4 1.3.2 release

  ==> Input File <==

--------------------------------------------------------------------------
# density fitted hartree fock
molecule h2o {
noreorient
nocom
0 1
H 0.0000000000 0.0000000000 0.9666666667
H 0.0000000000 0.8638448856 -0.4338392075
O 0.0000000000 0.0000000000 0.0000000000
}

set scf_type pk
set basis 6-31g
gradient('hf')

--------------------------------------------------------------------------

    Molecular point group: cs
  Charge       = 0
  Multiplicity = 1
  Basis Set: 6-31G
    Blend: 6-31G

    Orbital Energies [Eh]
    ---------------------

    Doubly Occupied:

       1Ap   -20.552380     2Ap    -1.338043     3Ap    -0.723676
       4Ap    -0.536125     1App   -0.494410

  @RHF Final Energy:   -75.98388898135310

   => Energetics <=

    Nuclear Repulsion Energy =              9.0803872551542391
    One-Electron Energy =                -122.8392840377916286
    Two-Electron Energy =                  37.7750078012842891
    Total Energy =                        -75.9838889813531040

  Dipole Moment: [D]
     X:     0.0000      Y:     2.0483      Z:     1.2634     Total:     2.4066

    Molecular point group: cs

    Geometry (in Angstrom), charge = 0, multiplicity = 1:

       Center              X                  Y                   Z               Mass
    ------------   -----------------  -----------------  -----------------  -----------------
         H            0.000000000000     0.000000000000     0.966666666700     1.007825032230
         H            0.000000000000     0.863844885600    -0.433839207500     1.007825032230
         O            0.000000000000     0.000000000000     0.000000000000    15.994914619570

  Basis Set: 6-31G
    Blend: 6-31G

  -Total Gradient:
     Atom            X                  Y                   Z
    ------   -----------------  -----------------  -----------------
       1        0.000000000000    -0.009357398120     0.020978271094
       2        0.000000000000     0.014547275102    -0.017777107219
       3        0.000000000000    -0.005189876982    -0.003201163875

*** Psi4 exiting successfully. Buy a developer a beer!
