                               Psi4 1.3.2 release

  ==> Input File <==

--------------------------------------------------------------------------
# density fitted hartree fock
molecule h2o {
noreorient
nocom
0 1
H 0.0000000000 0.0000000000 0.9333333333
H 0.0000000000 0.8927079897 -0.3249191362
O 0.0000000000 0.0000000000 0.0000000000
}

set scf_type pk
set basis 6-31g
gradient('hf')

--------------------------------------------------------------------------

    Molecular point group: cs
  Charge       = 0
  Multiplicity = 1
  Basis Set: 6-31G
    Blend: 6-31G

    Orbital Energies [Eh]
    ---------------------

    Doubly Occupied:

       1Ap   -20.553170     2Ap    -1.358675     3Ap    -0.728650
       4Ap    -0.552335     1App   -0.499616

  @RHF Final Energy:   -75.98496963132878

   => Energetics <=

    Nuclear Repulsion Energy =              9.3350393046668536
    One-Electron Energy =                -123.2551259742685943
    Two-Electron Energy =                  37.9351170382729492
    Total Energy =                        -75.9849696313287950

  Dipole Moment: [D]
     X:     0.0000      Y:     2.0756      Z:     1.4399     Total:     2.5261

    Molecular point group: cs

    Geometry (in Angstrom), charge = 0, multiplicity = 1:

       Center              X                  Y                   Z               Mass
    ------------   -----------------  -----------------  -----------------  -----------------
         H            0.000000000000     0.000000000000     0.933333333300     1.007825032230
         H            0.000000000000     0.892707989700    -0.324919136200     1.007825032230
         O            0.000000000000     0.000000000000     0.000000000000    15.994914619570

  Basis Set: 6-31G
    Blend: 6-31G

  -Total Gradient:
     Atom            X                  Y                   Z
    ------   -----------------  -----------------  -----------------
       1        0.000000000000     0.003407366182    -0.020440427875
       2        0.000000000000     0.000780695560     0.003278278141
       3        0.000000000000    -0.004188061742     0.017162149735

*** Psi4 exiting successfully. Buy a developer a beer!
