                               Psi4 1.2.1 release

  ==> Input File <==

--------------------------------------------------------------------------
# density-fitted hartree fock energies and gradients with 6-31g
molecule h2o {
0 1
H 0.0000000000 0.0000000000 0.9500000000
H 0.0000000000 0.9659258263 -0.2588190451
O 0.0000000000 0.0000000000 0.0000000000
}

set basis 6-31g

gradient('mp2')
--------------------------------------------------------------------------

    Molecular point group: cs
  Charge       = 0
  Multiplicity = 1
  Basis Set: 6-31G
    Blend: 6-31G
  Basis Set: (6-31G AUX)
    Blend: CC-PVDZ-JKFIT

    Orbital Energies [Eh]
    ---------------------

    Doubly Occupied:

       1Ap   -20.563492     2Ap    -1.347176     3Ap    -0.701310
       4Ap    -0.556880     1App   -0.500242

  @DF-RHF Final Energy:   -75.98218900643322

   => Energetics <=

    Nuclear Repulsion Energy =              9.0316386952131502
    One-Electron Energy =                -122.6894536163304252
    Two-Electron Energy =                  37.6756259146840478
    Total Energy =                        -75.9821890064332308

  Dipole Moment: [D]
     X:    -2.0980      Y:    -1.5828      Z:     0.0000     Total:     2.6281

  Basis Set: (6-31G AUX)
    Blend: CC-PVDZ-RI
    Molecular point group: cs

    Geometry (in Angstrom), charge = 0, multiplicity = 1:

       Center              X                  Y                   Z               Mass
    ------------   -----------------  -----------------  -----------------  -----------------
         H            0.054050733220    -0.911323285512     0.000000000000     1.007825032070
         H           -0.911875093080     0.297495759588     0.000000000000     1.007825032070
         O            0.054050733220     0.038676714488     0.000000000000    15.994914619560

  Basis Set: 6-31G
    Blend: 6-31G
  Basis Set: (6-31G AUX)
    Blend: CC-PVDZ-JKFIT
  Basis Set: (6-31G AUX)
    Blend: CC-PVDZ-JKFIT
	 Reference Energy          =     -75.9821890064332166 [Eh]
	 Singles Energy            =      -0.0000000000000000 [Eh]
	 Same-Spin Energy          =      -0.0305065198776040 [Eh]
	 Opposite-Spin Energy      =      -0.0998457341896957 [Eh]
	 Correlation Energy        =      -0.1303522540672997 [Eh]
	 Total Energy              =     -76.1125412605005209 [Eh]

	 ================> DF-SCS-MP2 Energies <==================
	-----------------------------------------------------------
	 SCS Same-Spin Scale       =       0.3333333333333333 [-]
	 SCS Opposite-Spin Scale   =       1.2000000000000000 [-]
	 SCS Same-Spin Energy      =      -0.0101688399592013 [Eh]
	 SCS Opposite-Spin Energy  =      -0.1198148810276349 [Eh]
	 SCS Correlation Energy    =      -0.1299837209868362 [Eh]
	 SCS Total Energy          =     -76.1121727274200595 [Eh]
	-----------------------------------------------------------

  -Total Gradient:
     Atom            X                  Y                   Z
    ------   -----------------  -----------------  -----------------
       1       -0.007394864134     0.029442582921    -0.000000000000
       2       -0.020424376327    -0.001800251267     0.000000000000
       3        0.027819240461    -0.027642331654    -0.000000000000

*** Psi4 exiting successfully. Buy a developer a beer!
