                               Psi4 1.2.1 release

  ==> Input File <==

--------------------------------------------------------------------------
# density-fitted hartree fock energies and gradients with 6-31g
molecule h2o {
0 1
H 0.0000000000 0.0000000000 1.0500000000
H 0.0000000000 1.0336618829 -0.3762221577
O 0.0000000000 0.0000000000 0.0000000000
}

set basis 6-31g

gradient('mp2')
--------------------------------------------------------------------------

    Molecular point group: cs
  Charge       = 0
  Multiplicity = 1
  Basis Set: 6-31G
    Blend: 6-31G
  Basis Set: (6-31G AUX)
    Blend: CC-PVDZ-JKFIT

    Orbital Energies [Eh]
    ---------------------

    Doubly Occupied:

       1Ap   -20.578326     2Ap    -1.297741     3Ap    -0.656606
       4Ap    -0.532704     1App   -0.493439

  @DF-RHF Final Energy:   -75.96037645404132

   => Energetics <=

    Nuclear Repulsion Energy =              8.1808159875558584
    One-Electron Energy =                -121.1647546908650384
    Two-Electron Energy =                  37.0235622492678473
    Total Energy =                        -75.9603764540413238

  Dipole Moment: [D]
     X:    -2.1067      Y:    -1.4521      Z:     0.0000     Total:     2.5587

  Basis Set: (6-31G AUX)
    Blend: CC-PVDZ-RI
    Molecular point group: cs

    Geometry (in Angstrom), charge = 0, multiplicity = 1:

       Center              X                  Y                   Z               Mass
    ------------   -----------------  -----------------  -----------------  -----------------
         H            0.057841069316    -1.012297119083     0.000000000000     1.007825032070
         H           -0.975820813584     0.413925038617     0.000000000000     1.007825032070
         O            0.057841069316     0.037702880917     0.000000000000    15.994914619560

  Basis Set: 6-31G
    Blend: 6-31G
  Basis Set: (6-31G AUX)
    Blend: CC-PVDZ-JKFIT
  Basis Set: (6-31G AUX)
    Blend: CC-PVDZ-JKFIT
	 Reference Energy          =     -75.9603764540413238 [Eh]
	 Singles Energy            =      -0.0000000000000000 [Eh]
	 Same-Spin Energy          =      -0.0324559737005622 [Eh]
	 Opposite-Spin Energy      =      -0.1066228081517876 [Eh]
	 Correlation Energy        =      -0.1390787818523498 [Eh]
	 Total Energy              =     -76.0994552358936716 [Eh]

	 ================> DF-SCS-MP2 Energies <==================
	-----------------------------------------------------------
	 SCS Same-Spin Scale       =       0.3333333333333333 [-]
	 SCS Opposite-Spin Scale   =       1.2000000000000000 [-]
	 SCS Same-Spin Energy      =      -0.0108186579001874 [Eh]
	 SCS Opposite-Spin Energy  =      -0.1279473697821451 [Eh]
	 SCS Correlation Energy    =      -0.1387660276823325 [Eh]
	 SCS Total Energy          =     -76.0991424817236606 [Eh]
	-----------------------------------------------------------

  -Total Gradient:
     Atom            X                  Y                   Z
    ------   -----------------  -----------------  -----------------
       1        0.008714358336    -0.052468493256     0.000000000000
       2       -0.069150519805     0.034020827954     0.000000000000
       3        0.060436161469     0.018447665302    -0.000000000000

*** Psi4 exiting successfully. Buy a developer a beer!
