                               Psi4 1.3.2 release

  ==> Input File <==

--------------------------------------------------------------------------
# density fitted hartree fock
molecule h2o {
0 1
H 0.0000000000 0.0000000000 0.9333333333
H 0.0000000000 0.8941235448 -0.2676830172
O 0.0000000000 0.0000000000 0.0000000000
}

set scf_type pk
set basis 6-31g
gradient('hf')

--------------------------------------------------------------------------

    Molecular point group: c2v
  Charge       = 0
  Multiplicity = 1
  Basis Set: 6-31G
    Blend: 6-31G

    Orbital Energies [Eh]
    ---------------------

    Doubly Occupied:

       1A1   -20.554056     2A1    -1.367105     1B2    -0.727837
       3A1    -0.559985     1B1    -0.501777

  @RHF Final Energy:   -75.98391047809417

   => Energetics <=

    Nuclear Repulsion Energy =              9.4250310872028606
    One-Electron Energy =                -123.3963635284010678
    Two-Electron Energy =                  37.9874219631040262
    Total Energy =                        -75.9839104780941739

  Dipole Moment: [D]
     X:    -0.0000      Y:     0.0000      Z:     2.5828     Total:     2.5828

    Molecular point group: c2v

    Geometry (in Angstrom), charge = 0, multiplicity = 1:

       Center              X                  Y                   Z               Mass
    ------------   -----------------  -----------------  -----------------  -----------------
         H            0.000000000000    -0.748648313218     0.494972485988     1.007825032230
         H           -0.000000000000     0.748648313218     0.494972485988     1.007825032230
         O           -0.000000000000     0.000000000000    -0.062375532913    15.994914619570

  Basis Set: 6-31G
    Blend: 6-31G

  -Total Gradient:
     Atom            X                  Y                   Z
    ------   -----------------  -----------------  -----------------
       1       -0.000000000000     0.024317322373    -0.005163180817
       2        0.000000000000    -0.024317322373    -0.005163180817
       3        0.000000000000     0.000000000000     0.010326361635

*** Psi4 exiting successfully. Buy a developer a beer!
