                               Psi4 1.3.2 release

  ==> Input File <==

--------------------------------------------------------------------------
# density fitted hartree fock
molecule h2o {
0 1
H 0.0000000000 0.0000000000 0.9333333333
H 0.0000000000 0.8638448856 -0.4338392075
O 0.0000000000 0.0000000000 0.0000000000
}

set scf_type pk
set basis 6-31g
gradient('hf')

--------------------------------------------------------------------------

    Molecular point group: cs
  Charge       = 0
  Multiplicity = 1
  Basis Set: 6-31G
    Blend: 6-31G

    Orbital Energies [Eh]
    ---------------------

    Doubly Occupied:

       1Ap   -20.549334     2Ap    -1.346968     3Ap    -0.733885
       4Ap    -0.538517     1App   -0.495609

  @RHF Final Energy:   -75.98407817555230

   => Energetics <=

    Nuclear Repulsion Energy =              9.2424171208527461
    One-Electron Energy =                -123.1243657879386149
    Two-Electron Energy =                  37.8978704915335669
    Total Energy =                        -75.9840781755522983

  Dipole Moment: [D]
     X:    -2.0575      Y:    -1.2347      Z:     0.0000     Total:     2.3996

    Molecular point group: cs

    Geometry (in Angstrom), charge = 0, multiplicity = 1:

       Center              X                  Y                   Z               Mass
    ------------   -----------------  -----------------  -----------------  -----------------
         H            0.048338545456    -0.905382922401     0.000000000000     1.007825032230
         H           -0.815506340144     0.461789618399     0.000000000000     1.007825032230
         O            0.048338545456     0.027950410899     0.000000000000    15.994914619570

  Basis Set: 6-31G
    Blend: 6-31G

  -Total Gradient:
     Atom            X                  Y                   Z
    ------   -----------------  -----------------  -----------------
       1        0.008434884657     0.016429720113     0.000000000000
       2       -0.015792856577     0.017044865869     0.000000000000
       3        0.007357971920    -0.033474585981     0.000000000000

*** Psi4 exiting successfully. Buy a developer a beer!
