                               Psi4 1.3.1 release

  ==> Input File <==

--------------------------------------------------------------------------
# density fitted hartree fock
molecule h2o {
0 1
H 0.0000000000 0.0000000000 1.2000000000
H 0.0000000000 0.8442526041 -0.0986789770
O 0.0000000000 0.0000000000 0.0000000000
}

set basis 6-31g
energy('hf')

--------------------------------------------------------------------------

    Molecular point group: cs

    Geometry (in Angstrom), charge = 0, multiplicity = 1:

       Center              X                  Y                   Z               Mass
    ------------   -----------------  -----------------  -----------------  -----------------
         H            0.047242211605    -1.138372898631     0.000000000000     1.007825032230
         H           -0.797010392495     0.160306078369     0.000000000000     1.007825032230
         O            0.047242211605     0.061627101369     0.000000000000    15.994914619570

  Charge       = 0
  Multiplicity = 1
  Basis Set: 6-31G
    Blend: 6-31G
  Basis Set: (6-31G AUX)
    Blend: CC-PVDZ-JKFIT

    Orbital Energies [Eh]
    ---------------------

    Doubly Occupied:

       1Ap   -20.576820     2Ap    -1.359324     3Ap    -0.675661
       4Ap    -0.553228     1App   -0.505085

  @DF-RHF Final Energy:   -75.92905605450758

   => Energetics <=

    Nuclear Repulsion Energy =              8.8499696078553072
    One-Electron Energy =                -122.2178052255600420
    Two-Electron Energy =                  37.4387795631971656
    Total Energy =                        -75.9290560545075834

  Dipole Moment: [D]
     X:    -2.0322      Y:    -1.8488      Z:     0.0000     Total:     2.7474

*** Psi4 exiting successfully. Buy a developer a beer!
