                               Psi4 1.3.2 release

  ==> Input File <==

--------------------------------------------------------------------------
# density fitted hartree fock
molecule h2o {
0 1
H 0.0000000000 0.0000000000 0.9333333333
H 0.0000000000 0.8723053015 -0.3762757777
O 0.0000000000 0.0000000000 0.0000000000
}

set scf_type pk
set basis 6-31g
gradient('hf')

--------------------------------------------------------------------------

    Molecular point group: cs
  Charge       = 0
  Multiplicity = 1
  Basis Set: 6-31G
    Blend: 6-31G

    Orbital Energies [Eh]
    ---------------------

    Doubly Occupied:

       1Ap   -20.550553     2Ap    -1.354908     3Ap    -0.734025
       4Ap    -0.546009     1App   -0.497937

  @RHF Final Energy:   -75.98501752873085

   => Energetics <=

    Nuclear Repulsion Energy =              9.3283334941118348
    One-Electron Energy =                -123.2598375476804335
    Two-Electron Energy =                  37.9464865248377521
    Total Energy =                        -75.9850175287308502

  Dipole Moment: [D]
     X:    -2.0646      Y:    -1.3424      Z:     0.0000     Total:     2.4626

    Molecular point group: cs

    Geometry (in Angstrom), charge = 0, multiplicity = 1:

       Center              X                  Y                   Z               Mass
    ------------   -----------------  -----------------  -----------------  -----------------
         H            0.048811968643    -0.902161820425     0.000000000000     1.007825032230
         H           -0.823493332857     0.407447290575     0.000000000000     1.007825032230
         O            0.048811968643     0.031171512875     0.000000000000    15.994914619570

  Basis Set: 6-31G
    Blend: 6-31G

  -Total Gradient:
     Atom            X                  Y                   Z
    ------   -----------------  -----------------  -----------------
       1        0.002402867456     0.018193123865     0.000000000000
       2       -0.000838844467     0.002932818992     0.000000000000
       3       -0.001564022989    -0.021125942857     0.000000000000

*** Psi4 exiting successfully. Buy a developer a beer!
