                               Psi4 1.3.2 release

  ==> Input File <==

--------------------------------------------------------------------------
# density fitted hartree fock
molecule h2o {
0 1
H 0.0000000000 0.0000000000 0.9333333333
H 0.0000000000 0.8936326403 -0.4487991802
O 0.0000000000 0.0000000000 0.0000000000
}

set scf_type pk
set basis 6-31g
gradient('hf')

--------------------------------------------------------------------------

    Molecular point group: cs
  Charge       = 0
  Multiplicity = 1
  Basis Set: 6-31G
    Blend: 6-31G

    Orbital Energies [Eh]
    ---------------------

    Doubly Occupied:

       1Ap   -20.552257     2Ap    -1.339220     3Ap    -0.723787
       4Ap    -0.535939     1App   -0.494488

  @RHF Final Energy:   -75.98174039840809

   => Energetics <=

    Nuclear Repulsion Energy =              9.0907416758618975
    One-Electron Energy =                -122.8535821836136961
    Two-Electron Energy =                  37.7811001093437113
    Total Energy =                        -75.9817403984080926

  Dipole Moment: [D]
     X:    -2.0778      Y:    -1.2153      Z:     0.0000     Total:     2.4071

    Molecular point group: cs

    Geometry (in Angstrom), charge = 0, multiplicity = 1:

       Center              X                  Y                   Z               Mass
    ------------   -----------------  -----------------  -----------------  -----------------
         H            0.050005391853    -0.906220044126     0.000000000000     1.007825032230
         H           -0.843627248447     0.475912469374     0.000000000000     1.007825032230
         O            0.050005391853     0.027113289174     0.000000000000    15.994914619570

  Basis Set: 6-31G
    Blend: 6-31G

  -Total Gradient:
     Atom            X                  Y                   Z
    ------   -----------------  -----------------  -----------------
       1        0.009760029487     0.017216212712     0.000000000000
       2       -0.041743984406     0.031158249297     0.000000000000
       3        0.031983954919    -0.048374462009     0.000000000000

*** Psi4 exiting successfully. Buy a developer a beer!
