                               Psi4 1.3.2 release

  ==> Input File <==

--------------------------------------------------------------------------
# density fitted hartree fock
molecule h2o {
0 1
H 0.0000000000 0.0000000000 0.9166666667
H 0.0000000000 0.8876089033 -0.3828771072
O 0.0000000000 0.0000000000 0.0000000000
}

set scf_type pk
set basis 6-31g
gradient('hf')

--------------------------------------------------------------------------

    Molecular point group: cs
  Charge       = 0
  Multiplicity = 1
  Basis Set: 6-31G
    Blend: 6-31G

    Orbital Energies [Eh]
    ---------------------

    Doubly Occupied:

       1Ap   -20.550503     2Ap    -1.355536     3Ap    -0.734065
       4Ap    -0.545915     1App   -0.497981

  @RHF Final Energy:   -75.98374719361871

   => Energetics <=

    Nuclear Repulsion Energy =              9.3339255710192859
    One-Electron Energy =                -123.2673449754019543
    Two-Electron Energy =                  37.9496722107639641
    Total Energy =                        -75.9837471936187114

  Dipole Moment: [D]
     X:    -2.0787      Y:    -1.3207      Z:     0.0000     Total:     2.4628

    Molecular point group: cs

    Geometry (in Angstrom), charge = 0, multiplicity = 1:

       Center              X                  Y                   Z               Mass
    ------------   -----------------  -----------------  -----------------  -----------------
         H            0.049668318971    -0.886797171243     0.000000000000     1.007825032230
         H           -0.837940584329     0.412746602657     0.000000000000     1.007825032230
         O            0.049668318971     0.029869495457     0.000000000000    15.994914619570

  Basis Set: 6-31G
    Blend: 6-31G

  -Total Gradient:
     Atom            X                  Y                   Z
    ------   -----------------  -----------------  -----------------
       1        0.002489347017     0.040752764509     0.000000000000
       2       -0.017313805275     0.010039288858     0.000000000000
       3        0.014824458258    -0.050792053367     0.000000000000

*** Psi4 exiting successfully. Buy a developer a beer!
