                               Psi4 1.3.1 release

  ==> Input File <==

--------------------------------------------------------------------------
# density fitted hartree fock
molecule h2o {
0 1
H 0.0000000000 0.0000000000 1.0833333333
H 0.0000000000 0.8290925052 -0.4163859061
O 0.0000000000 0.0000000000 0.0000000000
}

set basis 6-31g
energy('hf')

--------------------------------------------------------------------------

    Molecular point group: cs

    Geometry (in Angstrom), charge = 0, multiplicity = 1:

       Center              X                  Y                   Z               Mass
    ------------   -----------------  -----------------  -----------------  -----------------
         H            0.046393891332    -1.046012664898     0.000000000000     1.007825032230
         H           -0.782698613868     0.453706574502     0.000000000000     1.007825032230
         O            0.046393891332     0.037320668402     0.000000000000    15.994914619570

  Charge       = 0
  Multiplicity = 1
  Basis Set: 6-31G
    Blend: 6-31G
  Basis Set: (6-31G AUX)
    Blend: CC-PVDZ-JKFIT

    Orbital Energies [Eh]
    ---------------------

    Doubly Occupied:

       1Ap   -20.558649     2Ap    -1.325140     3Ap    -0.701982
       4Ap    -0.529334     1App   -0.492397

  @DF-RHF Final Energy:   -75.96917966178643

   => Energetics <=

    Nuclear Repulsion Energy =              8.7795388819727975
    One-Electron Energy =                -122.2824233246844443
    Two-Electron Energy =                  37.5337047809252127
    Total Energy =                        -75.9691796617864270

  Dipole Moment: [D]
     X:    -1.9961      Y:    -1.3714      Z:     0.0000     Total:     2.4219

*** Psi4 exiting successfully. Buy a developer a beer!
