                               Psi4 1.3.2 release

  ==> Input File <==

--------------------------------------------------------------------------
# density fitted hartree fock
molecule h2o {
0 1
H 0.0000000000 0.0000000000 1.0000000000
H 0.0000000000 0.9579895123 -0.2868032327
O 0.0000000000 0.0000000000 0.0000000000
}

set scf_type pk
set basis 6-31g
gradient('hf')

--------------------------------------------------------------------------

    Molecular point group: c2v
  Charge       = 0
  Multiplicity = 1
  Basis Set: 6-31G
    Blend: 6-31G

    Orbital Energies [Eh]
    ---------------------

    Doubly Occupied:

       1A1   -20.567140     2A1    -1.332414     1B2    -0.690236
       3A1    -0.550152     1B1    -0.498111

  @RHF Final Energy:   -75.98060271719400

   => Energetics <=

    Nuclear Repulsion Energy =              8.7966956811922596
    One-Electron Energy =                -122.2784906167755139
    Two-Electron Energy =                  37.5011922183892494
    Total Energy =                        -75.9806027171940030

  Dipole Moment: [D]
     X:     0.0000      Y:     0.0000      Z:     2.6070     Total:     2.6070

    Molecular point group: c2v

    Geometry (in Angstrom), charge = 0, multiplicity = 1:

       Center              X                  Y                   Z               Mass
    ------------   -----------------  -----------------  -----------------  -----------------
         H            0.000000000000    -0.802123192746     0.530327663577     1.007825032230
         H           -0.000000000000     0.802123192746     0.530327663577     1.007825032230
         O            0.000000000000     0.000000000000    -0.066830928123    15.994914619570

  Basis Set: 6-31G
    Blend: 6-31G

  -Total Gradient:
     Atom            X                  Y                   Z
    ------   -----------------  -----------------  -----------------
       1        0.000000000000    -0.032418473097     0.029536486740
       2       -0.000000000000     0.032418473097     0.029536486740
       3       -0.000000000000     0.000000000000    -0.059072973479

*** Psi4 exiting successfully. Buy a developer a beer!
