                               Psi4 1.3.2 release

  ==> Input File <==

--------------------------------------------------------------------------
# density fitted hartree fock
molecule h2o {
0 1
H 0.0000000000 0.0000000000 0.9500000000
H 0.0000000000 0.8227241336 -0.4750000000
O 0.0000000000 0.0000000000 0.0000000000
}

set scf_type pk
set basis 6-31g
gradient('hf')

--------------------------------------------------------------------------

    Molecular point group: c2v
  Charge       = 0
  Multiplicity = 1
  Basis Set: 6-31G
    Blend: 6-31G

    Orbital Energies [Eh]
    ---------------------

    Doubly Occupied:

       1A1   -20.546521     2A1    -1.343014     1B2    -0.738465
       3A1    -0.532424     1B1    -0.493785

  @RHF Final Energy:   -75.98356202683155

   => Energetics <=

    Nuclear Repulsion Energy =              9.2340589218215143
    One-Electron Energy =                -123.1268244017688147
    Two-Electron Energy =                  37.9092034531157367
    Total Energy =                        -75.9835620268315637

  Dipole Moment: [D]
     X:     0.0000      Y:     0.0000      Z:     2.3288     Total:     2.3288

    Molecular point group: c2v

    Geometry (in Angstrom), charge = 0, multiplicity = 1:

       Center              X                  Y                   Z               Mass
    ------------   -----------------  -----------------  -----------------  -----------------
         H            0.000000000000    -0.822724133596     0.421840435190     1.007825032230
         H           -0.000000000000     0.822724133596     0.421840435190     1.007825032230
         O            0.000000000000     0.000000000000    -0.053159564812    15.994914619570

  Basis Set: 6-31G
    Blend: 6-31G

  -Total Gradient:
     Atom            X                  Y                   Z
    ------   -----------------  -----------------  -----------------
       1        0.000000000000    -0.011570159350    -0.008375057005
       2       -0.000000000000     0.011570159350    -0.008375057005
       3       -0.000000000000     0.000000000000     0.016750114010

*** Psi4 exiting successfully. Buy a developer a beer!
