                               Psi4 1.3.2 release

  ==> Input File <==

--------------------------------------------------------------------------
# density fitted hartree fock
molecule h2o {
0 1
H 0.0000000000 0.0000000000 0.9500000000
H 0.0000000000 0.9260565286 -0.2772431250
O 0.0000000000 0.0000000000 0.0000000000
}

set scf_type pk
set basis 6-31g
gradient('hf')

--------------------------------------------------------------------------

    Molecular point group: cs
  Charge       = 0
  Multiplicity = 1
  Basis Set: 6-31G
    Blend: 6-31G

    Orbital Energies [Eh]
    ---------------------

    Doubly Occupied:

       1Ap   -20.558975     2Ap    -1.353433     3Ap    -0.713309
       4Ap    -0.556282     1App   -0.500251

  @RHF Final Energy:   -75.98451618558406

   => Energetics <=

    Nuclear Repulsion Energy =              9.1798215985923690
    One-Electron Energy =                -122.9641754923599706
    Two-Electron Energy =                  37.7998377081835457
    Total Energy =                        -75.9845161855840558

  Dipole Moment: [D]
     X:    -2.0853      Y:    -1.5417      Z:     0.0000     Total:     2.5933

    Molecular point group: cs

    Geometry (in Angstrom), charge = 0, multiplicity = 1:

       Center              X                  Y                   Z               Mass
    ------------   -----------------  -----------------  -----------------  -----------------
         H            0.051819749528    -0.912354249790     0.000000000000     1.007825032230
         H           -0.874236779072     0.314888875210     0.000000000000     1.007825032230
         O            0.051819749528     0.037645750210     0.000000000000    15.994914619570

  Basis Set: 6-31G
    Blend: 6-31G

  -Total Gradient:
     Atom            X                  Y                   Z
    ------   -----------------  -----------------  -----------------
       1       -0.008003762323     0.003187578455     0.000000000000
       2       -0.016253282728    -0.003344788033     0.000000000000
       3        0.024257045052     0.000157209578     0.000000000000

*** Psi4 exiting successfully. Buy a developer a beer!
