                               Psi4 1.3.2 release

  ==> Input File <==

--------------------------------------------------------------------------
# density fitted hartree fock
molecule h2o {
noreorient
nocom
0 1
H 0.0000000000 0.0000000000 0.9833333333
H 0.0000000000 0.9848077530 -0.1736481777
O 0.0000000000 0.0000000000 0.0000000000
}

set scf_type pk
set basis 6-31g
gradient('hf')

--------------------------------------------------------------------------

    Molecular point group: cs
  Charge       = 0
  Multiplicity = 1
  Basis Set: 6-31G
    Blend: 6-31G

    Orbital Energies [Eh]
    ---------------------

    Doubly Occupied:

       1Ap   -20.570669     2Ap    -1.343699     3Ap    -0.683794
       4Ap    -0.564227     1App   -0.502000

  @RHF Final Energy:   -75.97935464326751

   => Energetics <=

    Nuclear Repulsion Energy =              8.8868779351874672
    One-Electron Energy =                -122.4036893275950604
    Two-Electron Energy =                  37.5374567491400768
    Total Energy =                        -75.9793546432675129

  Dipole Moment: [D]
     X:     0.0000      Y:     2.0830      Z:     1.7429     Total:     2.7160

    Molecular point group: cs

    Geometry (in Angstrom), charge = 0, multiplicity = 1:

       Center              X                  Y                   Z               Mass
    ------------   -----------------  -----------------  -----------------  -----------------
         H            0.000000000000     0.000000000000     0.983333333300     1.007825032230
         H            0.000000000000     0.984807753000    -0.173648177700     1.007825032230
         O            0.000000000000     0.000000000000     0.000000000000    15.994914619570

  Basis Set: 6-31G
    Blend: 6-31G

  -Total Gradient:
     Atom            X                  Y                   Z
    ------   -----------------  -----------------  -----------------
       1        0.000000000000     0.017417714131     0.025089568158
       2        0.000000000000     0.041416183856     0.010088845640
       3        0.000000000000    -0.058833897986    -0.035178413798

*** Psi4 exiting successfully. Buy a developer a beer!
