                               Psi4 1.3.1 release

  ==> Input File <==

--------------------------------------------------------------------------
# density fitted hartree fock
molecule h2o {
0 1
H 0.0000000000 0.0000000000 1.2000000000
H 0.0000000000 0.9666666667 0.0000000000
O 0.0000000000 0.0000000000 0.0000000000
}

set basis 6-31g
energy('hf')

--------------------------------------------------------------------------

    Molecular point group: cs

    Geometry (in Angstrom), charge = 0, multiplicity = 1:

       Center              X                  Y                   Z               Mass
    ------------   -----------------  -----------------  -----------------  -----------------
         H            0.054092188758    -1.132851076027     0.000000000000     1.007825032230
         H           -0.912574477942     0.067148923973     0.000000000000     1.007825032230
         O            0.054092188758     0.067148923973     0.000000000000    15.994914619570

  Charge       = 0
  Multiplicity = 1
  Basis Set: 6-31G
    Blend: 6-31G
  Basis Set: (6-31G AUX)
    Blend: CC-PVDZ-JKFIT

    Orbital Energies [Eh]
    ---------------------

    Doubly Occupied:

       1Ap   -20.594639     2Ap    -1.323816     3Ap    -0.636840
       4Ap    -0.558609     1App   -0.505784

  @DF-RHF Final Energy:   -75.93993751394522

   => Energetics <=

    Nuclear Repulsion Energy =              8.2506613610283619
    One-Electron Energy =                -121.1418155082413222
    Two-Electron Energy =                  36.9512166332677339
    Total Energy =                        -75.9399375139452246

  Dipole Moment: [D]
     X:    -2.0611      Y:    -1.9797      Z:     0.0000     Total:     2.8579

*** Psi4 exiting successfully. Buy a developer a beer!
