                               Psi4 1.3.1 release

  ==> Input File <==

--------------------------------------------------------------------------
# density fitted hartree fock
molecule h2o {
0 1
H 0.0000000000 0.0000000000 1.0055555556
H 0.0000000000 0.7804836908 -0.3366678011
O 0.0000000000 0.0000000000 0.0000000000
}

set basis 6-31g
energy('hf')

--------------------------------------------------------------------------

    Molecular point group: cs

    Geometry (in Angstrom), charge = 0, multiplicity = 1:

       Center              X                  Y                   Z               Mass
    ------------   -----------------  -----------------  -----------------  -----------------
         H            0.043673866680    -0.968126311456     0.000000000000     1.007825032230
         H           -0.736809824120     0.374097045244     0.000000000000     1.007825032230
         O            0.043673866680     0.037429244144     0.000000000000    15.994914619570

  Charge       = 0
  Multiplicity = 1
  Basis Set: 6-31G
    Blend: 6-31G
  Basis Set: (6-31G AUX)
    Blend: CC-PVDZ-JKFIT

    Orbital Energies [Eh]
    ---------------------

    Doubly Occupied:

       1Ap   -20.547498     2Ap    -1.369578     3Ap    -0.742843
       4Ap    -0.547101     1App   -0.499433

  @DF-RHF Final Energy:   -75.96879065536672

   => Energetics <=

    Nuclear Repulsion Energy =              9.5313422494653217
    One-Electron Energy =                -123.5873541032883765
    Two-Electron Energy =                  38.0872211984563407
    Total Energy =                        -75.9687906553667176

  Dipole Moment: [D]
     X:    -1.9830      Y:    -1.4536      Z:     0.0000     Total:     2.4587

*** Psi4 exiting successfully. Buy a developer a beer!
