                               Psi4 1.2.1 release

  ==> Input File <==

--------------------------------------------------------------------------
# density-fitted hartree fock energies and gradients with 6-31g
molecule h2o {
0 1
H 0.0000000000 0.0000000000 1.1500000000
H 0.0000000000 1.1817693036 -0.2083778132
O 0.0000000000 0.0000000000 0.0000000000
}

set basis 6-31g

gradient('mp2')
--------------------------------------------------------------------------

    Molecular point group: cs
  Charge       = 0
  Multiplicity = 1
  Basis Set: 6-31G
    Blend: 6-31G
  Basis Set: (6-31G AUX)
    Blend: CC-PVDZ-JKFIT

    Orbital Energies [Eh]
    ---------------------

    Doubly Occupied:

       1Ap   -20.605447     2Ap    -1.274013     3Ap    -0.602326
       4Ap    -0.535224     1App   -0.498509

  @DF-RHF Final Energy:   -75.92157268962313

   => Energetics <=

    Nuclear Repulsion Energy =              7.5029879282895626
    One-Electron Energy =                -119.8180823812376019
    Two-Electron Energy =                  36.3935217633249195
    Total Energy =                        -75.9215726896231331

  Dipole Moment: [D]
     X:    -2.0750      Y:    -1.7510      Z:     0.0000     Total:     2.7150

  Basis Set: (6-31G AUX)
    Blend: CC-PVDZ-RI
    Molecular point group: cs

    Geometry (in Angstrom), charge = 0, multiplicity = 1:

       Center              X                  Y                   Z               Mass
    ------------   -----------------  -----------------  -----------------  -----------------
         H            0.066128780925    -1.097309236147     0.000000000000     1.007825032070
         H           -1.115640522675     0.261068577053     0.000000000000     1.007825032070
         O            0.066128780925     0.052690763853     0.000000000000    15.994914619560

  Basis Set: 6-31G
    Blend: 6-31G
  Basis Set: (6-31G AUX)
    Blend: CC-PVDZ-JKFIT
  Basis Set: (6-31G AUX)
    Blend: CC-PVDZ-JKFIT
	 Reference Energy          =     -75.9215726896231331 [Eh]
	 Singles Energy            =      -0.0000000000000000 [Eh]
	 Same-Spin Energy          =      -0.0345442932778378 [Eh]
	 Opposite-Spin Energy      =      -0.1154523503282160 [Eh]
	 Correlation Energy        =      -0.1499966436060539 [Eh]
	 Total Energy              =     -76.0715693332291920 [Eh]

	 ================> DF-SCS-MP2 Energies <==================
	-----------------------------------------------------------
	 SCS Same-Spin Scale       =       0.3333333333333333 [-]
	 SCS Opposite-Spin Scale   =       1.2000000000000000 [-]
	 SCS Same-Spin Energy      =      -0.0115147644259459 [Eh]
	 SCS Opposite-Spin Energy  =      -0.1385428203938592 [Eh]
	 SCS Correlation Energy    =      -0.1500575848198052 [Eh]
	 SCS Total Energy          =     -76.0716302744429385 [Eh]
	-----------------------------------------------------------

  -Total Gradient:
     Atom            X                  Y                   Z
    ------   -----------------  -----------------  -----------------
       1        0.000818783222    -0.082454261504    -0.000000000000
       2       -0.091822672334     0.016987584759    -0.000000000000
       3        0.091003889112     0.065466676746     0.000000000000

*** Psi4 exiting successfully. Buy a developer a beer!
