                               Psi4 1.2.1 release

  ==> Input File <==

--------------------------------------------------------------------------
# density-fitted hartree fock energies and gradients with 6-31g
molecule h2o {
0 1
H 0.0000000000 0.0000000000 0.9500000000
H 0.0000000000 1.1817693036 -0.2083778132
O 0.0000000000 0.0000000000 0.0000000000
}

set basis 6-31g

gradient('mp2')
--------------------------------------------------------------------------

    Molecular point group: cs
  Charge       = 0
  Multiplicity = 1
  Basis Set: 6-31G
    Blend: 6-31G
  Basis Set: (6-31G AUX)
    Blend: CC-PVDZ-JKFIT

    Orbital Energies [Eh]
    ---------------------

    Doubly Occupied:

       1Ap   -20.585236     2Ap    -1.319325     3Ap    -0.652065
       4Ap    -0.544451     1App   -0.500578

  @DF-RHF Final Energy:   -75.94593250438240

   => Energetics <=

    Nuclear Repulsion Energy =              8.3038571636932765
    One-Electron Energy =                -121.2962693282751303
    Two-Electron Energy =                  37.0464796601994593
    Total Energy =                        -75.9459325043823981

  Dipole Moment: [D]
     X:    -2.0904      Y:    -1.7314      Z:     0.0000     Total:     2.7143

  Basis Set: (6-31G AUX)
    Blend: CC-PVDZ-RI
    Molecular point group: cs

    Geometry (in Angstrom), charge = 0, multiplicity = 1:

       Center              X                  Y                   Z               Mass
    ------------   -----------------  -----------------  -----------------  -----------------
         H            0.066128780925    -0.908500723474     0.000000000000     1.007825032070
         H           -1.115640522675     0.249877089726     0.000000000000     1.007825032070
         O            0.066128780925     0.041499276526     0.000000000000    15.994914619560

  Basis Set: 6-31G
    Blend: 6-31G
  Basis Set: (6-31G AUX)
    Blend: CC-PVDZ-JKFIT
  Basis Set: (6-31G AUX)
    Blend: CC-PVDZ-JKFIT
	 Reference Energy          =     -75.9459325043823981 [Eh]
	 Singles Energy            =      -0.0000000000000000 [Eh]
	 Same-Spin Energy          =      -0.0322639437411535 [Eh]
	 Opposite-Spin Energy      =      -0.1073864997490646 [Eh]
	 Correlation Energy        =      -0.1396504434902182 [Eh]
	 Total Energy              =     -76.0855829478726093 [Eh]

	 ================> DF-SCS-MP2 Energies <==================
	-----------------------------------------------------------
	 SCS Same-Spin Scale       =       0.3333333333333333 [-]
	 SCS Opposite-Spin Scale   =       1.2000000000000000 [-]
	 SCS Same-Spin Energy      =      -0.0107546479137178 [Eh]
	 SCS Opposite-Spin Energy  =      -0.1288637996988775 [Eh]
	 SCS Correlation Energy    =      -0.1396184476125954 [Eh]
	 SCS Total Energy          =     -76.0855509519949891 [Eh]
	-----------------------------------------------------------

  -Total Gradient:
     Atom            X                  Y                   Z
    ------   -----------------  -----------------  -----------------
       1       -0.006279530373     0.036834614843    -0.000000000000
       2       -0.096493789013     0.011966471265     0.000000000000
       3        0.102773319386    -0.048801086108     0.000000000000

*** Psi4 exiting successfully. Buy a developer a beer!
