                               Psi4 1.2.1 release

  ==> Input File <==

--------------------------------------------------------------------------
# density-fitted hartree fock energies and gradients with 6-31g
molecule h2o {
0 1
H 0.0000000000 0.0000000000 1.0500000000
H 0.0000000000 1.1817693036 -0.2083778132
O 0.0000000000 0.0000000000 0.0000000000
}

set basis 6-31g

gradient('mp2')
--------------------------------------------------------------------------

    Molecular point group: cs
  Charge       = 0
  Multiplicity = 1
  Basis Set: 6-31G
    Blend: 6-31G
  Basis Set: (6-31G AUX)
    Blend: CC-PVDZ-JKFIT

    Orbital Energies [Eh]
    ---------------------

    Doubly Occupied:

       1Ap   -20.595823     2Ap    -1.292776     3Ap    -0.625750
       4Ap    -0.540421     1App   -0.499075

  @DF-RHF Final Energy:   -75.93912251634036

   => Energetics <=

    Nuclear Repulsion Energy =              7.8662137305988349
    One-Electron Energy =                -120.5029827988207529
    Two-Electron Energy =                  36.6976465518815615
    Total Energy =                        -75.9391225163403618

  Dipole Moment: [D]
     X:    -2.0795      Y:    -1.7540      Z:     0.0000     Total:     2.7204

  Basis Set: (6-31G AUX)
    Blend: CC-PVDZ-RI
    Molecular point group: cs

    Geometry (in Angstrom), charge = 0, multiplicity = 1:

       Center              X                  Y                   Z               Mass
    ------------   -----------------  -----------------  -----------------  -----------------
         H            0.066128780925    -1.002904979811     0.000000000000     1.007825032070
         H           -1.115640522675     0.255472833389     0.000000000000     1.007825032070
         O            0.066128780925     0.047095020189     0.000000000000    15.994914619560

  Basis Set: 6-31G
    Blend: 6-31G
  Basis Set: (6-31G AUX)
    Blend: CC-PVDZ-JKFIT
  Basis Set: (6-31G AUX)
    Blend: CC-PVDZ-JKFIT
	 Reference Energy          =     -75.9391225163403618 [Eh]
	 Singles Energy            =      -0.0000000000000000 [Eh]
	 Same-Spin Energy          =      -0.0334663674039868 [Eh]
	 Opposite-Spin Energy      =      -0.1114099583869988 [Eh]
	 Correlation Energy        =      -0.1448763257909856 [Eh]
	 Total Energy              =     -76.0839988421313507 [Eh]

	 ================> DF-SCS-MP2 Energies <==================
	-----------------------------------------------------------
	 SCS Same-Spin Scale       =       0.3333333333333333 [-]
	 SCS Opposite-Spin Scale   =       1.2000000000000000 [-]
	 SCS Same-Spin Energy      =      -0.0111554558013289 [Eh]
	 SCS Opposite-Spin Energy  =      -0.1336919500643986 [Eh]
	 SCS Correlation Energy    =      -0.1448474058657275 [Eh]
	 SCS Total Energy          =     -76.0839699222060943 [Eh]
	-----------------------------------------------------------

  -Total Gradient:
     Atom            X                  Y                   Z
    ------   -----------------  -----------------  -----------------
       1       -0.002328436086    -0.044066089693    -0.000000000000
       2       -0.094182802935     0.014538155292    -0.000000000000
       3        0.096511239021     0.029527934401     0.000000000000

*** Psi4 exiting successfully. Buy a developer a beer!
