                               Psi4 1.3.2 release

  ==> Input File <==

--------------------------------------------------------------------------
# density fitted hartree fock
molecule h2o {
0 1
H 0.0000000000 0.0000000000 0.9166666667
H 0.0000000000 0.9519808279 -0.1678599051
O 0.0000000000 0.0000000000 0.0000000000
}

set scf_type pk
set basis 6-31g
gradient('hf')

--------------------------------------------------------------------------

    Molecular point group: cs
  Charge       = 0
  Multiplicity = 1
  Basis Set: 6-31G
    Blend: 6-31G

    Orbital Energies [Eh]
    ---------------------

    Doubly Occupied:

       1Ap   -20.560405     2Ap    -1.370997     3Ap    -0.710664
       4Ap    -0.571600     1App   -0.504448

  @RHF Final Energy:   -75.97972052349301

   => Energetics <=

    Nuclear Repulsion Energy =              9.3643725649067449
    One-Electron Energy =                -123.2519556012062907
    Two-Electron Energy =                  37.9078625128065312
    Total Energy =                        -75.9797205234930146

  Dipole Moment: [D]
     X:    -2.0774      Y:    -1.7217      Z:     0.0000     Total:     2.6981

    Molecular point group: cs

    Geometry (in Angstrom), charge = 0, multiplicity = 1:

       Center              X                  Y                   Z               Mass
    ------------   -----------------  -----------------  -----------------  -----------------
         H            0.053270406864    -0.874765359779     0.000000000000     1.007825032230
         H           -0.898710421036     0.209761212021     0.000000000000     1.007825032230
         O            0.053270406864     0.041901306921     0.000000000000    15.994914619570

  Basis Set: 6-31G
    Blend: 6-31G

  -Total Gradient:
     Atom            X                  Y                   Z
    ------   -----------------  -----------------  -----------------
       1       -0.023443511067     0.049974338483     0.000000000000
       2       -0.013359013141    -0.020218308114     0.000000000000
       3        0.036802524209    -0.029756030368     0.000000000000

*** Psi4 exiting successfully. Buy a developer a beer!
