                               Psi4 1.3.2 release

  ==> Input File <==

--------------------------------------------------------------------------
# density fitted hartree fock
molecule h2o {
0 1
H 0.0000000000 0.0000000000 0.9166666667
H 0.0000000000 0.8613849024 -0.3135184647
O 0.0000000000 0.0000000000 0.0000000000
}

set scf_type pk
set basis 6-31g
gradient('hf')

--------------------------------------------------------------------------

    Molecular point group: c2v
  Charge       = 0
  Multiplicity = 1
  Basis Set: 6-31G
    Blend: 6-31G

    Orbital Energies [Eh]
    ---------------------

    Doubly Occupied:

       1A1   -20.548374     2A1    -1.372791     1B2    -0.743907
       3A1    -0.556031     1B1    -0.501379

  @RHF Final Energy:   -75.98270310782017

   => Energetics <=

    Nuclear Repulsion Energy =              9.5889146360705624
    One-Electron Energy =                -123.6982718512225290
    Two-Electron Energy =                  38.1266541073317740
    Total Energy =                        -75.9827031078201856

  Dipole Moment: [D]
     X:     0.0000      Y:     0.0000      Z:     2.5143     Total:     2.5143

    Molecular point group: c2v

    Geometry (in Angstrom), charge = 0, multiplicity = 1:

       Center              X                  Y                   Z               Mass
    ------------   -----------------  -----------------  -----------------  -----------------
         H            0.000000000000    -0.750889373943     0.466935976993     1.007825032230
         H           -0.000000000000     0.750889373943     0.466935976993     1.007825032230
         O            0.000000000000     0.000000000000    -0.058842423014    15.994914619570

  Basis Set: 6-31G
    Blend: 6-31G

  -Total Gradient:
     Atom            X                  Y                   Z
    ------   -----------------  -----------------  -----------------
       1       -0.000000000000     0.037773695691    -0.019486923450
       2        0.000000000000    -0.037773695691    -0.019486923450
       3        0.000000000000     0.000000000000     0.038973846900

*** Psi4 exiting successfully. Buy a developer a beer!
