                               Psi4 1.3.1 release

  ==> Input File <==

--------------------------------------------------------------------------
# density fitted hartree fock
molecule h2o {
0 1
H 0.0000000000 0.0000000000 1.1611111111
H 0.0000000000 1.0444444444 0.0000000000
O 0.0000000000 0.0000000000 0.0000000000
}

set basis 6-31g
energy('hf')

--------------------------------------------------------------------------

    Molecular point group: cs

    Geometry (in Angstrom), charge = 0, multiplicity = 1:

       Center              X                  Y                   Z               Mass
    ------------   -----------------  -----------------  -----------------  -----------------
         H            0.058444433826    -1.096138309664     0.000000000000     1.007825032230
         H           -0.986000010574     0.064972801436     0.000000000000     1.007825032230
         O            0.058444433826     0.064972801436     0.000000000000    15.994914619570

  Charge       = 0
  Multiplicity = 1
  Basis Set: 6-31G
    Blend: 6-31G
  Basis Set: (6-31G AUX)
    Blend: CC-PVDZ-JKFIT

    Orbital Energies [Eh]
    ---------------------

    Doubly Occupied:

       1Ap   -20.599593     2Ap    -1.308290     3Ap    -0.620797
       4Ap    -0.562293     1App   -0.504742

  @DF-RHF Final Energy:   -75.94270024186976

   => Energetics <=

    Nuclear Repulsion Energy =              8.0381153493017194
    One-Electron Energy =                -120.7701947597446548
    Two-Electron Energy =                  36.7893791685731841
    Total Energy =                        -75.9427002418697441

  Dipole Moment: [D]
     X:    -2.0545      Y:    -2.0050      Z:     0.0000     Total:     2.8707

*** Psi4 exiting successfully. Buy a developer a beer!
