                               Psi4 1.3.1 release

  ==> Input File <==

--------------------------------------------------------------------------
# density fitted hartree fock
molecule h2o {
0 1
H 0.0000000000 0.0000000000 1.0833333333
H 0.0000000000 0.8370865901 -0.1476009510
O 0.0000000000 0.0000000000 0.0000000000
}

set basis 6-31g
energy('hf')

--------------------------------------------------------------------------

    Molecular point group: cs

    Geometry (in Angstrom), charge = 0, multiplicity = 1:

       Center              X                  Y                   Z               Mass
    ------------   -----------------  -----------------  -----------------  -----------------
         H            0.046841219831    -1.030972147802     0.000000000000     1.007825032230
         H           -0.790245370269     0.199962136498     0.000000000000     1.007825032230
         O            0.046841219831     0.052361185498     0.000000000000    15.994914619570

  Charge       = 0
  Multiplicity = 1
  Basis Set: 6-31G
    Blend: 6-31G
  Basis Set: (6-31G AUX)
    Blend: CC-PVDZ-JKFIT

    Orbital Energies [Eh]
    ---------------------

    Doubly Occupied:

       1Ap   -20.564520     2Ap    -1.370944     3Ap    -0.700844
       4Ap    -0.563866     1App   -0.504351

  @DF-RHF Final Energy:   -75.95441573575832

   => Energetics <=

    Nuclear Repulsion Energy =              9.2437494167319763
    One-Electron Energy =                -122.9872740243550027
    Two-Electron Energy =                  37.7891088718647197
    Total Energy =                        -75.9544157357583174

  Dipole Moment: [D]
     X:    -2.0239      Y:    -1.7865      Z:     0.0000     Total:     2.6995

*** Psi4 exiting successfully. Buy a developer a beer!
