                               Psi4 1.2.1 release

  ==> Input File <==

--------------------------------------------------------------------------
# density-fitted hartree fock energies and gradients with 6-31g
molecule h2o {
0 1
H 0.0000000000 0.0000000000 1.0000000000
H 0.0000000000 1.0340481407 -0.1823305866
O 0.0000000000 0.0000000000 0.0000000000
}

set basis 6-31g

gradient('mp2')
--------------------------------------------------------------------------

    Molecular point group: cs
  Charge       = 0
  Multiplicity = 1
  Basis Set: 6-31G
    Blend: 6-31G
  Basis Set: (6-31G AUX)
    Blend: CC-PVDZ-JKFIT

    Orbital Energies [Eh]
    ---------------------

    Doubly Occupied:

       1Ap   -20.577309     2Ap    -1.328406     3Ap    -0.667311
       4Ap    -0.558912     1App   -0.500821

  @DF-RHF Final Energy:   -75.97298747087363

   => Energetics <=

    Nuclear Repulsion Energy =              8.6021450740982743
    One-Electron Energy =                -121.8847479463191519
    Two-Electron Energy =                  37.3096154013472443
    Total Energy =                        -75.9729874708736332

  Dipole Moment: [D]
     X:    -2.0912      Y:    -1.7443      Z:     0.0000     Total:     2.7232

  Basis Set: (6-31G AUX)
    Blend: CC-PVDZ-RI
    Molecular point group: cs

    Geometry (in Angstrom), charge = 0, multiplicity = 1:

       Center              X                  Y                   Z               Mass
    ------------   -----------------  -----------------  -----------------  -----------------
         H            0.057862683312    -0.954245315610     0.000000000000     1.007825032070
         H           -0.976185457388     0.228085270990     0.000000000000     1.007825032070
         O            0.057862683312     0.045754684390     0.000000000000    15.994914619560

  Basis Set: 6-31G
    Blend: 6-31G
  Basis Set: (6-31G AUX)
    Blend: CC-PVDZ-JKFIT
  Basis Set: (6-31G AUX)
    Blend: CC-PVDZ-JKFIT
	 Reference Energy          =     -75.9729874708736332 [Eh]
	 Singles Energy            =      -0.0000000000000000 [Eh]
	 Same-Spin Energy          =      -0.0315564397308318 [Eh]
	 Opposite-Spin Energy      =      -0.1038971026798450 [Eh]
	 Correlation Energy        =      -0.1354535424106769 [Eh]
	 Total Energy              =     -76.1084410132843061 [Eh]

	 ================> DF-SCS-MP2 Energies <==================
	-----------------------------------------------------------
	 SCS Same-Spin Scale       =       0.3333333333333333 [-]
	 SCS Opposite-Spin Scale   =       1.2000000000000000 [-]
	 SCS Same-Spin Energy      =      -0.0105188132436106 [Eh]
	 SCS Opposite-Spin Energy  =      -0.1246765232158140 [Eh]
	 SCS Correlation Energy    =      -0.1351953364594246 [Eh]
	 SCS Total Energy          =     -76.1081828073330513 [Eh]
	-----------------------------------------------------------

  -Total Gradient:
     Atom            X                  Y                   Z
    ------   -----------------  -----------------  -----------------
       1       -0.011007759441    -0.013334697962    -0.000000000000
       2       -0.048624197702    -0.002071549096     0.000000000000
       3        0.059631957143     0.015406247058     0.000000000000

*** Psi4 exiting successfully. Buy a developer a beer!
