                               Psi4 1.2.1 release

  ==> Input File <==

--------------------------------------------------------------------------
# density-fitted hartree fock energies and gradients with 6-31g
molecule h2o {
0 1
H 0.0000000000 0.0000000000 1.0500000000
H 0.0000000000 0.9866772518 -0.3591211505
O 0.0000000000 0.0000000000 0.0000000000
}

set basis 6-31g

gradient('mp2')
--------------------------------------------------------------------------

    Molecular point group: c2v
  Charge       = 0
  Multiplicity = 1
  Basis Set: 6-31G
    Blend: 6-31G
  Basis Set: (6-31G AUX)
    Blend: CC-PVDZ-JKFIT

    Orbital Energies [Eh]
    ---------------------

    Doubly Occupied:

       1A1   -20.573774     2A1    -1.307028     1B2    -0.668765
       3A1    -0.536530     1B1    -0.494169

  @DF-RHF Final Energy:   -75.96887327020789

   => Energetics <=

    Nuclear Repulsion Energy =              8.3712746496429205
    One-Electron Energy =                -121.5197638633687944
    Two-Electron Energy =                  37.1796159435179590
    Total Energy =                        -75.9688732702079079

  Dipole Moment: [D]
     X:     0.0000      Y:     0.0000      Z:     2.5572     Total:     2.5572

  Basis Set: (6-31G AUX)
    Blend: CC-PVDZ-RI
    Molecular point group: c2v

    Geometry (in Angstrom), charge = 0, multiplicity = 1:

       Center              X                  Y                   Z               Mass
    ------------   -----------------  -----------------  -----------------  -----------------
         H            0.000000000000    -0.860109646500     0.534853937262     1.007825032070
         H           -0.000000000000     0.860109646500     0.534853937262     1.007825032070
         O            0.000000000000     0.000000000000    -0.067401320894    15.994914619560

  Basis Set: 6-31G
    Blend: 6-31G
  Basis Set: (6-31G AUX)
    Blend: CC-PVDZ-JKFIT
  Basis Set: (6-31G AUX)
    Blend: CC-PVDZ-JKFIT
	 Reference Energy          =     -75.9688732702078937 [Eh]
	 Singles Energy            =      -0.0000000000000000 [Eh]
	 Same-Spin Energy          =      -0.0319987429639222 [Eh]
	 Opposite-Spin Energy      =      -0.1048176342166057 [Eh]
	 Correlation Energy        =      -0.1368163771805279 [Eh]
	 Total Energy              =     -76.1056896473884166 [Eh]

	 ================> DF-SCS-MP2 Energies <==================
	-----------------------------------------------------------
	 SCS Same-Spin Scale       =       0.3333333333333333 [-]
	 SCS Opposite-Spin Scale   =       1.2000000000000000 [-]
	 SCS Same-Spin Energy      =      -0.0106662476546407 [Eh]
	 SCS Opposite-Spin Energy  =      -0.1257811610599269 [Eh]
	 SCS Correlation Energy    =      -0.1364474087145676 [Eh]
	 SCS Total Energy          =     -76.1053206789224674 [Eh]
	-----------------------------------------------------------

  -Total Gradient:
     Atom            X                  Y                   Z
    ------   -----------------  -----------------  -----------------
       1        0.000000000000    -0.048120306075     0.025190244421
       2        0.000000000000     0.048120306078     0.025190244422
       3       -0.000000000000    -0.000000000003    -0.050380488843

*** Psi4 exiting successfully. Buy a developer a beer!
