                               Psi4 1.3.2 release

  ==> Input File <==

--------------------------------------------------------------------------
# density fitted hartree fock
molecule h2o {
0 1
H 0.0000000000 0.0000000000 0.9833333333
H 0.0000000000 0.8042693763 -0.4039192622
O 0.0000000000 0.0000000000 0.0000000000
}

set scf_type pk
set basis 6-31g
gradient('hf')

--------------------------------------------------------------------------

    Molecular point group: cs
  Charge       = 0
  Multiplicity = 1
  Basis Set: 6-31G
    Blend: 6-31G

    Orbital Energies [Eh]
    ---------------------

    Doubly Occupied:

       1Ap   -20.547687     2Ap    -1.353069     3Ap    -0.739131
       4Ap    -0.539523     1App   -0.496338

  @RHF Final Energy:   -75.98065259895613

   => Energetics <=

    Nuclear Repulsion Energy =              9.3389749570726224
    One-Electron Energy =                -123.2877592538922755
    Two-Electron Energy =                  37.9681316978635337
    Total Energy =                        -75.9806525989561123

  Dipole Moment: [D]
     X:    -1.9998      Y:    -1.3209      Z:     0.0000     Total:     2.3967

    Molecular point group: cs

    Geometry (in Angstrom), charge = 0, multiplicity = 1:

       Center              X                  Y                   Z               Mass
    ------------   -----------------  -----------------  -----------------  -----------------
         H            0.045004852669    -0.950910807126     0.000000000000     1.007825032230
         H           -0.759264523631     0.436341788374     0.000000000000     1.007825032230
         O            0.045004852669     0.032422526174     0.000000000000    15.994914619570

  Basis Set: 6-31G
    Blend: 6-31G

  -Total Gradient:
     Atom            X                  Y                   Z
    ------   -----------------  -----------------  -----------------
       1        0.007480141145    -0.038199150865     0.000000000000
       2        0.060870155638    -0.021424609861     0.000000000000
       3       -0.068350296783     0.059623760726     0.000000000000

*** Psi4 exiting successfully. Buy a developer a beer!
