                               Psi4 1.3.2 release

  ==> Input File <==

--------------------------------------------------------------------------
# density fitted hartree fock
molecule h2o {
0 1
H 0.0000000000 0.0000000000 0.9333333333
H 0.0000000000 0.8757403835 -0.2075542837
O 0.0000000000 0.0000000000 0.0000000000
}

set scf_type pk
set basis 6-31g
gradient('hf')

--------------------------------------------------------------------------

    Molecular point group: cs
  Charge       = 0
  Multiplicity = 1
  Basis Set: 6-31G
    Blend: 6-31G

    Orbital Energies [Eh]
    ---------------------

    Doubly Occupied:

       1Ap   -20.553066     2Ap    -1.381191     3Ap    -0.731434
       4Ap    -0.568875     1App   -0.504426

  @RHF Final Energy:   -75.97950294120818

   => Energetics <=

    Nuclear Repulsion Energy =              9.6075349416759259
    One-Electron Energy =                -123.6960910047031064
    Two-Electron Energy =                  38.1090531218190023
    Total Energy =                        -75.9795029412081817

  Dipole Moment: [D]
     X:    -2.0548      Y:    -1.6453      Z:     0.0000     Total:     2.6324

    Molecular point group: cs

    Geometry (in Angstrom), charge = 0, multiplicity = 1:

       Center              X                  Y                   Z               Mass
    ------------   -----------------  -----------------  -----------------  -----------------
         H            0.049004187026    -0.892720598114     0.000000000000     1.007825032230
         H           -0.826736196474     0.248167018886     0.000000000000     1.007825032230
         O            0.049004187026     0.040612735186     0.000000000000    15.994914619570

  Basis Set: 6-31G
    Blend: 6-31G

  -Total Gradient:
     Atom            X                  Y                   Z
    ------   -----------------  -----------------  -----------------
       1       -0.018547165540     0.024844891456     0.000000000000
       2        0.065763744206    -0.035353211685     0.000000000000
       3       -0.047216578666     0.010508320229     0.000000000000

*** Psi4 exiting successfully. Buy a developer a beer!
