                               Psi4 1.3.2 release

  ==> Input File <==

--------------------------------------------------------------------------
# density fitted hartree fock
molecule h2o {
0 1
H 0.0000000000 0.0000000000 1.0000000000
H 0.0000000000 0.8082903769 -0.4666666667
O 0.0000000000 0.0000000000 0.0000000000
}

set scf_type pk
set basis 6-31g
gradient('hf')

--------------------------------------------------------------------------

    Molecular point group: cs
  Charge       = 0
  Multiplicity = 1
  Basis Set: 6-31G
    Blend: 6-31G

    Orbital Energies [Eh]
    ---------------------

    Doubly Occupied:

       1Ap   -20.549306     2Ap    -1.335627     3Ap    -0.728140
       4Ap    -0.529816     1App   -0.492591

  @RHF Final Energy:   -75.98048851472728

   => Energetics <=

    Nuclear Repulsion Energy =              9.0852155300115971
    One-Electron Energy =                -122.8604463923664127
    Two-Electron Energy =                  37.7947423476275333
    Total Energy =                        -75.9804885147272842

  Dipole Moment: [D]
     X:    -1.9911      Y:    -1.2239      Z:     0.0000     Total:     2.3372

    Molecular point group: cs

    Geometry (in Angstrom), charge = 0, multiplicity = 1:

       Center              X                  Y                   Z               Mass
    ------------   -----------------  -----------------  -----------------  -----------------
         H            0.045229857555    -0.970156033792     0.000000000000     1.007825032230
         H           -0.763060519345     0.496510632908     0.000000000000     1.007825032230
         O            0.045229857555     0.029843966208     0.000000000000    15.994914619570

  Basis Set: 6-31G
    Blend: 6-31G

  -Total Gradient:
     Atom            X                  Y                   Z
    ------   -----------------  -----------------  -----------------
       1        0.013587593060    -0.053384244535     0.000000000000
       2        0.020556664145     0.004941889214     0.000000000000
       3       -0.034144257205     0.048442355320     0.000000000000

*** Psi4 exiting successfully. Buy a developer a beer!
