                               Psi4 1.3.2 release

  ==> Input File <==

--------------------------------------------------------------------------
# density fitted hartree fock
molecule h2o {
noreorient
nocom
0 1
H 0.0000000000 0.0000000000 0.9833333333
H 0.0000000000 0.9081752125 -0.2152414794
O 0.0000000000 0.0000000000 0.0000000000
}

set scf_type pk
set basis 6-31g
gradient('hf')

--------------------------------------------------------------------------

    Molecular point group: cs
  Charge       = 0
  Multiplicity = 1
  Basis Set: 6-31G
    Blend: 6-31G

    Orbital Energies [Eh]
    ---------------------

    Doubly Occupied:

       1Ap   -20.561429     2Ap    -1.357821     3Ap    -0.707644
       4Ap    -0.562592     1App   -0.501958

  @RHF Final Energy:   -75.98223085086477

   => Energetics <=

    Nuclear Repulsion Energy =              9.1928724748295423
    One-Electron Energy =                -122.9673195688162650
    Two-Electron Energy =                  37.7922162431219562
    Total Energy =                        -75.9822308508647666

  Dipole Moment: [D]
     X:     0.0000      Y:     2.0663      Z:     1.6597     Total:     2.6503

    Molecular point group: cs

    Geometry (in Angstrom), charge = 0, multiplicity = 1:

       Center              X                  Y                   Z               Mass
    ------------   -----------------  -----------------  -----------------  -----------------
         H            0.000000000000     0.000000000000     0.983333333300     1.007825032230
         H            0.000000000000     0.908175212500    -0.215241479400     1.007825032230
         O            0.000000000000     0.000000000000     0.000000000000    15.994914619570

  Basis Set: 6-31G
    Blend: 6-31G

  -Total Gradient:
     Atom            X                  Y                   Z
    ------   -----------------  -----------------  -----------------
       1        0.000000000000     0.013859259361     0.027915485034
       2        0.000000000000    -0.021408004720     0.020080005668
       3        0.000000000000     0.007548745359    -0.047995490702

*** Psi4 exiting successfully. Buy a developer a beer!
