                               Psi4 1.2.1 release

  ==> Input File <==

--------------------------------------------------------------------------
# density-fitted hartree fock energies and gradients with 6-31g
molecule h2o {
0 1
H 0.0000000000 0.0000000000 1.0000000000
H 0.0000000000 0.9848077530 -0.1736481777
O 0.0000000000 0.0000000000 0.0000000000
}

set basis 6-31g

gradient('mp2')
--------------------------------------------------------------------------

    Molecular point group: c2v
  Charge       = 0
  Multiplicity = 1
  Basis Set: 6-31G
    Blend: 6-31G
  Basis Set: (6-31G AUX)
    Blend: CC-PVDZ-JKFIT

    Orbital Energies [Eh]
    ---------------------

    Doubly Occupied:

       1A1   -20.572360     2A1    -1.339537     1B2    -0.679497
       3A1    -0.562982     1B1    -0.501655

  @DF-RHF Final Energy:   -75.97832532090138

   => Energetics <=

    Nuclear Repulsion Energy =              8.8122312301835919
    One-Electron Energy =                -122.2690504999200982
    Two-Electron Energy =                  37.4784939488351299
    Total Energy =                        -75.9783253209013765

  Dipole Moment: [D]
     X:    -0.0000      Y:     0.0000      Z:     2.7183     Total:     2.7183

  Basis Set: (6-31G AUX)
    Blend: CC-PVDZ-RI
    Molecular point group: c2v

    Geometry (in Angstrom), charge = 0, multiplicity = 1:

       Center              X                  Y                   Z               Mass
    ------------   -----------------  -----------------  -----------------  -----------------
         H            0.000000000000    -0.766044443128     0.570850115794     1.007825032070
         H           -0.000000000000     0.766044443128     0.570850115794     1.007825032070
         O           -0.000000000000     0.000000000000    -0.071937493877    15.994914619560

  Basis Set: 6-31G
    Blend: 6-31G
  Basis Set: (6-31G AUX)
    Blend: CC-PVDZ-JKFIT
  Basis Set: (6-31G AUX)
    Blend: CC-PVDZ-JKFIT
	 Reference Energy          =     -75.9783253209013765 [Eh]
	 Singles Energy            =      -0.0000000000000000 [Eh]
	 Same-Spin Energy          =      -0.0310493702145028 [Eh]
	 Opposite-Spin Energy      =      -0.1020735684611971 [Eh]
	 Correlation Energy        =      -0.1331229386756999 [Eh]
	 Total Energy              =     -76.1114482595770738 [Eh]

	 ================> DF-SCS-MP2 Energies <==================
	-----------------------------------------------------------
	 SCS Same-Spin Scale       =       0.3333333333333333 [-]
	 SCS Opposite-Spin Scale   =       1.2000000000000000 [-]
	 SCS Same-Spin Energy      =      -0.0103497900715009 [Eh]
	 SCS Opposite-Spin Energy  =      -0.1224882821534365 [Eh]
	 SCS Correlation Energy    =      -0.1328380722249374 [Eh]
	 SCS Total Energy          =     -76.1111633931263185 [Eh]
	-----------------------------------------------------------

  -Total Gradient:
     Atom            X                  Y                   Z
    ------   -----------------  -----------------  -----------------
       1        0.000000000000    -0.002192076396     0.019358717109
       2        0.000000000000     0.002192076397     0.019358717108
       3       -0.000000000000    -0.000000000000    -0.038717434217

*** Psi4 exiting successfully. Buy a developer a beer!
