                               Psi4 1.2.1 release

  ==> Input File <==

--------------------------------------------------------------------------
# density-fitted hartree fock energies and gradients with 6-31g
molecule h2o {
0 1
H 0.0000000000 0.0000000000 0.9500000000
H 0.0000000000 1.0806465139 -0.3933231648
O 0.0000000000 0.0000000000 0.0000000000
}

set basis 6-31g

gradient('mp2')
--------------------------------------------------------------------------

    Molecular point group: cs
  Charge       = 0
  Multiplicity = 1
  Basis Set: 6-31G
    Blend: 6-31G
  Basis Set: (6-31G AUX)
    Blend: CC-PVDZ-JKFIT

    Orbital Energies [Eh]
    ---------------------

    Doubly Occupied:

       1Ap   -20.572490     2Ap    -1.315533     3Ap    -0.672196
       4Ap    -0.533680     1App   -0.494830

  @DF-RHF Final Energy:   -75.95789594865316

   => Energetics <=

    Nuclear Repulsion Energy =              8.4444020908777446
    One-Electron Energy =                -121.6271364195099807
    Two-Electron Energy =                  37.2248383799790901
    Total Energy =                        -75.9578959486531460

  Dipole Moment: [D]
     X:    -2.1409      Y:    -1.3917      Z:     0.0000     Total:     2.5534

  Basis Set: (6-31G AUX)
    Blend: CC-PVDZ-RI
    Molecular point group: cs

    Geometry (in Angstrom), charge = 0, multiplicity = 1:

       Center              X                  Y                   Z               Mass
    ------------   -----------------  -----------------  -----------------  -----------------
         H            0.060470208828    -0.918849791267     0.000000000000     1.007825032070
         H           -1.020176305072     0.424473373533     0.000000000000     1.007825032070
         O            0.060470208828     0.031150208733     0.000000000000    15.994914619560

  Basis Set: 6-31G
    Blend: 6-31G
  Basis Set: (6-31G AUX)
    Blend: CC-PVDZ-JKFIT
  Basis Set: (6-31G AUX)
    Blend: CC-PVDZ-JKFIT
	 Reference Energy          =     -75.9578959486531602 [Eh]
	 Singles Energy            =      -0.0000000000000000 [Eh]
	 Same-Spin Energy          =      -0.0318109297202956 [Eh]
	 Opposite-Spin Energy      =      -0.1046687796611511 [Eh]
	 Correlation Energy        =      -0.1364797093814467 [Eh]
	 Total Energy              =     -76.0943756580346076 [Eh]

	 ================> DF-SCS-MP2 Energies <==================
	-----------------------------------------------------------
	 SCS Same-Spin Scale       =       0.3333333333333333 [-]
	 SCS Opposite-Spin Scale   =       1.2000000000000000 [-]
	 SCS Same-Spin Energy      =      -0.0106036432400985 [Eh]
	 SCS Opposite-Spin Energy  =      -0.1256025355933814 [Eh]
	 SCS Correlation Energy    =      -0.1362061788334799 [Eh]
	 SCS Total Energy          =     -76.0941021274866358 [Eh]
	-----------------------------------------------------------

  -Total Gradient:
     Atom            X                  Y                   Z
    ------   -----------------  -----------------  -----------------
       1        0.007980852278     0.029718812375     0.000000000000
       2       -0.086575554087     0.038526918053     0.000000000000
       3        0.078594701808    -0.068245730428    -0.000000000000

*** Psi4 exiting successfully. Buy a developer a beer!
