                               Psi4 1.3.2 release

  ==> Input File <==

--------------------------------------------------------------------------
# density fitted hartree fock
molecule h2o {
noreorient
nocom
0 1
H 0.0000000000 0.0000000000 0.9496765298
H 0.0000000000 0.8834024755 -0.3485478124
O 0.0000000000 0.0000000000 0.0000000000
}

set scf_type pk
set basis 6-31g
gradient('hf')

--------------------------------------------------------------------------

    Molecular point group: cs
  Charge       = 0
  Multiplicity = 1
  Basis Set: 6-31G
    Blend: 6-31G

    Orbital Energies [Eh]
    ---------------------

    Doubly Occupied:

       1Ap   -20.553505     2Ap    -1.352521     3Ap    -0.726329
       4Ap    -0.548255     1App   -0.498303

  @RHF Final Energy:   -75.98535916863688

   => Energetics <=

    Nuclear Repulsion Energy =              9.2524889276899813
    One-Electron Energy =                -123.1178702636995013
    Two-Electron Energy =                  37.8800221673726440
    Total Energy =                        -75.9853591686368759

  Dipole Moment: [D]
     X:     0.0000      Y:     2.0676      Z:     1.4069     Total:     2.5008

    Molecular point group: cs

    Geometry (in Angstrom), charge = 0, multiplicity = 1:

       Center              X                  Y                   Z               Mass
    ------------   -----------------  -----------------  -----------------  -----------------
         H            0.000000000000     0.000000000000     0.949676529800     1.007825032230
         H            0.000000000000     0.883402475500    -0.348547812400     1.007825032230
         O            0.000000000000     0.000000000000     0.000000000000    15.994914619570

  Basis Set: 6-31G
    Blend: 6-31G

  -Total Gradient:
     Atom            X                  Y                   Z
    ------   -----------------  -----------------  -----------------
       1        0.000000000000     0.000019480135     0.000041524826
       2        0.000000000000     0.000045776524     0.000002880363
       3        0.000000000000    -0.000065256659    -0.000044405189

*** Psi4 exiting successfully. Buy a developer a beer!
