                               Psi4 1.3.2 release

  ==> Input File <==

--------------------------------------------------------------------------
# density fitted hartree fock
molecule h2o {
noreorient
nocom
0 1
H 0.0000000000 0.0000000000 0.9833333333
H 0.0000000000 0.9568274561 -0.2267722729
O 0.0000000000 0.0000000000 0.0000000000
}

set scf_type pk
set basis 6-31g
gradient('hf')

--------------------------------------------------------------------------

    Molecular point group: cs
  Charge       = 0
  Multiplicity = 1
  Basis Set: 6-31G
    Blend: 6-31G

    Orbital Energies [Eh]
    ---------------------

    Doubly Occupied:

       1Ap   -20.566493     2Ap    -1.344136     3Ap    -0.693840
       4Ap    -0.559036     1App   -0.500651

  @RHF Final Energy:   -75.98198512530890

   => Energetics <=

    Nuclear Repulsion Energy =              8.9533647476547245
    One-Electron Energy =                -122.5423867735832459
    Two-Electron Energy =                  37.6070369006196330
    Total Energy =                        -75.9819851253088956

  Dipole Moment: [D]
     X:     0.0000      Y:     2.0859      Z:     1.6494     Total:     2.6592

    Molecular point group: cs

    Geometry (in Angstrom), charge = 0, multiplicity = 1:

       Center              X                  Y                   Z               Mass
    ------------   -----------------  -----------------  -----------------  -----------------
         H            0.000000000000     0.000000000000     0.983333333300     1.007825032230
         H            0.000000000000     0.956827456100    -0.226772272900     1.007825032230
         O            0.000000000000     0.000000000000     0.000000000000    15.994914619570

  Basis Set: 6-31G
    Blend: 6-31G

  -Total Gradient:
     Atom            X                  Y                   Z
    ------   -----------------  -----------------  -----------------
       1        0.000000000000     0.011784793869     0.027577484749
       2        0.000000000000     0.029551890633     0.005107327553
       3        0.000000000000    -0.041336684502    -0.032684812303

*** Psi4 exiting successfully. Buy a developer a beer!
