                               Psi4 1.3.2 release

  ==> Input File <==

--------------------------------------------------------------------------
# density fitted hartree fock
molecule h2o {
noreorient
nocom
0 1
H 0.0000000000 0.0000000000 0.9546306473
H 0.0000000000 0.8809518300 -0.3478222762
O 0.0000000000 0.0000000000 0.0000000000
}

set scf_type pk
set basis 6-31g
set e_convergence 10
gradient('hf')

--------------------------------------------------------------------------

    Molecular point group: cs
  Charge       = 0
  Multiplicity = 1
  Basis Set: 6-31G
    Blend: 6-31G

    Orbital Energies [Eh]
    ---------------------

    Doubly Occupied:

       1Ap   -20.553721     2Ap    -1.351877     3Ap    -0.725632
       4Ap    -0.548050     1App   -0.498218

  @RHF Final Energy:   -75.98532587756121

   => Energetics <=

    Nuclear Repulsion Energy =              9.2408824687423063
    One-Electron Energy =                -123.0974216974419448
    Two-Electron Energy =                  37.8712133511384152
    Total Energy =                        -75.9853258775612233

  Dipole Moment: [D]
     X:     0.0000      Y:     2.0650      Z:     1.4111     Total:     2.5011

    Molecular point group: cs

    Geometry (in Angstrom), charge = 0, multiplicity = 1:

       Center              X                  Y                   Z               Mass
    ------------   -----------------  -----------------  -----------------  -----------------
         H            0.000000000000     0.000000000000     0.954630647300     1.007825032230
         H            0.000000000000     0.880951830000    -0.347822276200     1.007825032230
         O            0.000000000000     0.000000000000     0.000000000000    15.994914619570

  Basis Set: 6-31G
    Blend: 6-31G

  -Total Gradient:
     Atom            X                  Y                   Z
    ------   -----------------  -----------------  -----------------
       1        0.000000000000    -0.000102501040     0.005560708802
       2        0.000000000000    -0.002753110980     0.000975924996
       3        0.000000000000     0.002855612020    -0.006536633798

*** Psi4 exiting successfully. Buy a developer a beer!
