                               Psi4 1.2.1 release

  ==> Input File <==

--------------------------------------------------------------------------
# density-fitted hartree fock energies and gradients with 6-31g
molecule h2o {
0 1
H 0.0000000000 0.0000000000 1.1500000000
H 0.0000000000 1.1325289160 -0.1996954043
O 0.0000000000 0.0000000000 0.0000000000
}

set basis 6-31g

gradient('mp2')
--------------------------------------------------------------------------

    Molecular point group: c2v
  Charge       = 0
  Multiplicity = 1
  Basis Set: 6-31G
    Blend: 6-31G
  Basis Set: (6-31G AUX)
    Blend: CC-PVDZ-JKFIT

    Orbital Energies [Eh]
    ---------------------

    Doubly Occupied:

       1A1   -20.601124     2A1    -1.280976     1B2    -0.611566
       3A1    -0.539654     1B1    -0.498548

  @DF-RHF Final Energy:   -75.93242933466546

   => Energetics <=

    Nuclear Repulsion Energy =              7.6628097652516898
    One-Electron Energy =                -120.1267388836188843
    Two-Electron Energy =                  36.5314997837017330
    Total Energy =                        -75.9324293346654571

  Dipole Moment: [D]
     X:     0.0000      Y:     0.0000      Z:     2.7217     Total:     2.7217

  Basis Set: (6-31G AUX)
    Blend: CC-PVDZ-RI
    Molecular point group: c2v

    Geometry (in Angstrom), charge = 0, multiplicity = 1:

       Center              X                  Y                   Z               Mass
    ------------   -----------------  -----------------  -----------------  -----------------
         H            0.000000000000    -0.880951109592     0.656477633196     1.007825032070
         H           -0.000000000000     0.880951109592     0.656477633196     1.007825032070
         O            0.000000000000     0.000000000000    -0.082728117963    15.994914619560

  Basis Set: 6-31G
    Blend: 6-31G
  Basis Set: (6-31G AUX)
    Blend: CC-PVDZ-JKFIT
  Basis Set: (6-31G AUX)
    Blend: CC-PVDZ-JKFIT
	 Reference Energy          =     -75.9324293346654571 [Eh]
	 Singles Energy            =      -0.0000000000000000 [Eh]
	 Same-Spin Energy          =      -0.0340710450803512 [Eh]
	 Opposite-Spin Energy      =      -0.1134578767090146 [Eh]
	 Correlation Energy        =      -0.1475289217893658 [Eh]
	 Total Energy              =     -76.0799582564548160 [Eh]

	 ================> DF-SCS-MP2 Energies <==================
	-----------------------------------------------------------
	 SCS Same-Spin Scale       =       0.3333333333333333 [-]
	 SCS Opposite-Spin Scale   =       1.2000000000000000 [-]
	 SCS Same-Spin Energy      =      -0.0113570150267837 [Eh]
	 SCS Opposite-Spin Energy  =      -0.1361494520508175 [Eh]
	 SCS Correlation Energy    =      -0.1475064670776012 [Eh]
	 SCS Total Energy          =     -76.0799358017430620 [Eh]
	-----------------------------------------------------------

  -Total Gradient:
     Atom            X                  Y                   Z
    ------   -----------------  -----------------  -----------------
       1        0.000000000000    -0.063472258414     0.054126745733
       2        0.000000000000     0.063472258409     0.054126745730
       3       -0.000000000000     0.000000000005    -0.108253491462

*** Psi4 exiting successfully. Buy a developer a beer!
