                               Psi4 1.3.2 release

  ==> Input File <==

--------------------------------------------------------------------------
# density fitted hartree fock
molecule h2o {
0 1
H 0.0000000000 0.0000000000 0.9833333333
H 0.0000000000 0.8757403835 -0.2075542837
O 0.0000000000 0.0000000000 0.0000000000
}

set scf_type pk
set basis 6-31g
gradient('hf')

--------------------------------------------------------------------------

    Molecular point group: cs
  Charge       = 0
  Multiplicity = 1
  Basis Set: 6-31G
    Blend: 6-31G

    Orbital Energies [Eh]
    ---------------------

    Doubly Occupied:

       1Ap   -20.558001     2Ap    -1.368281     3Ap    -0.717214
       4Ap    -0.564803     1App   -0.502999

  @RHF Final Energy:   -75.97920089939186

   => Energetics <=

    Nuclear Repulsion Energy =              9.3669506583358118
    One-Electron Energy =                -123.2697074504861661
    Two-Electron Energy =                  37.9235558927584862
    Total Energy =                        -75.9792008993918699

  Dipole Moment: [D]
     X:    -2.0505      Y:    -1.6680      Z:     0.0000     Total:     2.6432

    Molecular point group: cs

    Geometry (in Angstrom), charge = 0, multiplicity = 1:

       Center              X                  Y                   Z               Mass
    ------------   -----------------  -----------------  -----------------  -----------------
         H            0.049004187026    -0.939922726282     0.000000000000     1.007825032230
         H           -0.826736196474     0.250964890718     0.000000000000     1.007825032230
         O            0.049004187026     0.043410607018     0.000000000000    15.994914619570

  Basis Set: 6-31G
    Blend: 6-31G

  -Total Gradient:
     Atom            X                  Y                   Z
    ------   -----------------  -----------------  -----------------
       1       -0.015212865560    -0.028161613282     0.000000000000
       2        0.066749595363    -0.032901855240     0.000000000000
       3       -0.051536729802     0.061063468523     0.000000000000

*** Psi4 exiting successfully. Buy a developer a beer!
