                               Psi4 1.3.2 release

  ==> Input File <==

--------------------------------------------------------------------------
# density fitted hartree fock
molecule h2o {
0 1
H 0.0000000000 0.0000000000 0.9833333333
H 0.0000000000 0.8781570530 -0.2629029633
O 0.0000000000 0.0000000000 0.0000000000
}

set scf_type pk
set basis 6-31g
gradient('hf')

--------------------------------------------------------------------------

    Molecular point group: cs
  Charge       = 0
  Multiplicity = 1
  Basis Set: 6-31G
    Blend: 6-31G

    Orbital Energies [Eh]
    ---------------------

    Doubly Occupied:

       1Ap   -20.557249     2Ap    -1.359073     3Ap    -0.718269
       4Ap    -0.557276     1App   -0.500831

  @RHF Final Energy:   -75.98232003238213

   => Energetics <=

    Nuclear Repulsion Energy =              9.2705473426359557
    One-Electron Energy =                -123.1203376344007552
    Two-Electron Energy =                  37.8674702593826709
    Total Energy =                        -75.9823200323821339

  Dipole Moment: [D]
     X:    -2.0558      Y:    -1.5750      Z:     0.0000     Total:     2.5898

    Molecular point group: cs

    Geometry (in Angstrom), charge = 0, multiplicity = 1:

       Center              X                  Y                   Z               Mass
    ------------   -----------------  -----------------  -----------------  -----------------
         H            0.049139417657    -0.943019896514     0.000000000000     1.007825032230
         H           -0.829017635343     0.303216400086     0.000000000000     1.007825032230
         O            0.049139417657     0.040313436786     0.000000000000    15.994914619570

  Basis Set: 6-31G
    Blend: 6-31G

  -Total Gradient:
     Atom            X                  Y                   Z
    ------   -----------------  -----------------  -----------------
       1       -0.008339769821    -0.030652172394     0.000000000000
       2        0.040902821611    -0.021584120821     0.000000000000
       3       -0.032563051790     0.052236293215     0.000000000000

*** Psi4 exiting successfully. Buy a developer a beer!
