                               Psi4 1.2.1 release

  ==> Input File <==

--------------------------------------------------------------------------
# density-fitted hartree fock energies and gradients with 6-31g
molecule h2o {
0 1
H 0.0000000000 0.0000000000 0.9500000000
H 0.0000000000 1.0142221176 -0.2717599974
O 0.0000000000 0.0000000000 0.0000000000
}

set basis 6-31g

gradient('mp2')
--------------------------------------------------------------------------

    Molecular point group: cs
  Charge       = 0
  Multiplicity = 1
  Basis Set: 6-31G
    Blend: 6-31G
  Basis Set: (6-31G AUX)
    Blend: CC-PVDZ-JKFIT

    Orbital Energies [Eh]
    ---------------------

    Doubly Occupied:

       1Ap   -20.568222     2Ap    -1.336623     3Ap    -0.688443
       4Ap    -0.552600     1App   -0.499215

  @DF-RHF Final Energy:   -75.97647670514644

   => Energetics <=

    Nuclear Repulsion Energy =              8.8213169265081923
    One-Electron Energy =                -122.3053812847750237
    Two-Electron Energy =                  37.5075876531203960
    Total Energy =                        -75.9764767051464389

  Dipole Moment: [D]
     X:    -2.1129      Y:    -1.5736      Z:     0.0000     Total:     2.6345

  Basis Set: (6-31G AUX)
    Blend: CC-PVDZ-RI
    Molecular point group: cs

    Geometry (in Angstrom), charge = 0, multiplicity = 1:

       Center              X                  Y                   Z               Mass
    ------------   -----------------  -----------------  -----------------  -----------------
         H            0.056753269881    -0.912047428030     0.000000000000     1.007825032070
         H           -0.957468847719     0.309712569370     0.000000000000     1.007825032070
         O            0.056753269881     0.037952571970     0.000000000000    15.994914619560

  Basis Set: 6-31G
    Blend: 6-31G
  Basis Set: (6-31G AUX)
    Blend: CC-PVDZ-JKFIT
  Basis Set: (6-31G AUX)
    Blend: CC-PVDZ-JKFIT
	 Reference Energy          =     -75.9764767051464389 [Eh]
	 Singles Energy            =      -0.0000000000000000 [Eh]
	 Same-Spin Energy          =      -0.0309789428621505 [Eh]
	 Opposite-Spin Energy      =      -0.1015938053251952 [Eh]
	 Correlation Energy        =      -0.1325727481873456 [Eh]
	 Total Energy              =     -76.1090494533337818 [Eh]

	 ================> DF-SCS-MP2 Energies <==================
	-----------------------------------------------------------
	 SCS Same-Spin Scale       =       0.3333333333333333 [-]
	 SCS Opposite-Spin Scale   =       1.2000000000000000 [-]
	 SCS Same-Spin Energy      =      -0.0103263142873835 [Eh]
	 SCS Opposite-Spin Energy  =      -0.1219125663902342 [Eh]
	 SCS Correlation Energy    =      -0.1322388806776177 [Eh]
	 SCS Total Energy          =     -76.1087155858240578 [Eh]
	-----------------------------------------------------------

  -Total Gradient:
     Atom            X                  Y                   Z
    ------   -----------------  -----------------  -----------------
       1       -0.004869220217     0.030510395743    -0.000000000000
       2       -0.051977323006     0.009366387571    -0.000000000000
       3        0.056846543223    -0.039876783314     0.000000000000

*** Psi4 exiting successfully. Buy a developer a beer!
