                               Psi4 1.3.1 release

  ==> Input File <==

--------------------------------------------------------------------------
# density fitted hartree fock
molecule h2o {
0 1
H 0.0000000000 0.0000000000 1.0444444444
H 0.0000000000 0.9601304125 -0.1122231503
O 0.0000000000 0.0000000000 0.0000000000
}

set basis 6-31g
energy('hf')

--------------------------------------------------------------------------

    Molecular point group: cs

    Geometry (in Angstrom), charge = 0, multiplicity = 1:

       Center              X                  Y                   Z               Mass
    ------------   -----------------  -----------------  -----------------  -----------------
         H            0.053726436727    -0.992279730397     0.000000000000     1.007825032230
         H           -0.906403975773     0.164387864303     0.000000000000     1.007825032230
         O            0.053726436727     0.052164714003     0.000000000000    15.994914619570

  Charge       = 0
  Multiplicity = 1
  Basis Set: 6-31G
    Blend: 6-31G
  Basis Set: (6-31G AUX)
    Blend: CC-PVDZ-JKFIT

    Orbital Energies [Eh]
    ---------------------

    Doubly Occupied:

       1Ap   -20.575773     2Ap    -1.341915     3Ap    -0.671688
       4Ap    -0.567945     1App   -0.503280

  @DF-RHF Final Energy:   -75.97319296444496

   => Energetics <=

    Nuclear Repulsion Energy =              8.7846943047026791
    One-Electron Energy =                -122.1945669278618851
    Two-Electron Energy =                  37.4366796587142332
    Total Energy =                        -75.9731929644449622

  Dipole Moment: [D]
     X:    -2.0644      Y:    -1.8468      Z:     0.0000     Total:     2.7699

*** Psi4 exiting successfully. Buy a developer a beer!
