                               Psi4 1.3.1 release

  ==> Input File <==

--------------------------------------------------------------------------
# density fitted hartree fock
molecule h2o {
0 1
H 0.0000000000 0.0000000000 1.0444444444
H 0.0000000000 0.9233173075 -0.3982802092
O 0.0000000000 0.0000000000 0.0000000000
}

set basis 6-31g
energy('hf')

--------------------------------------------------------------------------

    Molecular point group: cs

    Geometry (in Angstrom), charge = 0, multiplicity = 1:

       Center              X                  Y                   Z               Mass
    ------------   -----------------  -----------------  -----------------  -----------------
         H            0.051666469737    -1.008286750147     0.000000000000     1.007825032230
         H           -0.871650837763     0.434437903453     0.000000000000     1.007825032230
         O            0.051666469737     0.036157694253     0.000000000000    15.994914619570

  Charge       = 0
  Multiplicity = 1
  Basis Set: 6-31G
    Blend: 6-31G
  Basis Set: (6-31G AUX)
    Blend: CC-PVDZ-JKFIT

    Orbital Energies [Eh]
    ---------------------

    Doubly Occupied:

       1Ap   -20.566007     2Ap    -1.314503     3Ap    -0.686098
       4Ap    -0.533825     1App   -0.493113

  @DF-RHF Final Energy:   -75.97447528883731

   => Energetics <=

    Nuclear Repulsion Energy =              8.5722403271642111
    One-Electron Energy =                -121.9063285475517233
    Two-Electron Energy =                  37.3596129315502026
    Total Energy =                        -75.9744752888373114

  Dipole Moment: [D]
     X:    -2.0680      Y:    -1.3883      Z:     0.0000     Total:     2.4908

*** Psi4 exiting successfully. Buy a developer a beer!
