                               Psi4 1.3.1 release

  ==> Input File <==

--------------------------------------------------------------------------
# density fitted hartree fock
molecule h2o {
0 1
H 0.0000000000 0.0000000000 1.1611111111
H 0.0000000000 1.0055517188 -0.5805555556
O 0.0000000000 0.0000000000 0.0000000000
}

set basis 6-31g
energy('hf')

--------------------------------------------------------------------------

    Molecular point group: c2v

    Geometry (in Angstrom), charge = 0, multiplicity = 1:

       Center              X                  Y                   Z               Mass
    ------------   -----------------  -----------------  -----------------  -----------------
         H            0.000000000000    -1.005551718843     0.515582754092     1.007825032230
         H           -0.000000000000     1.005551718843     0.515582754092     1.007825032230
         O           -0.000000000000     0.000000000000    -0.064972801433    15.994914619570

  Charge       = 0
  Multiplicity = 1
  Basis Set: 6-31G
    Blend: 6-31G
  Basis Set: (6-31G AUX)
    Blend: CC-PVDZ-JKFIT

    Orbital Energies [Eh]
    ---------------------

    Doubly Occupied:

       1A1   -20.582932     2A1    -1.259439     1B2    -0.625332
       3A1    -0.503022     1B1    -0.484419

  @DF-RHF Final Energy:   -75.92118553606593

   => Energetics <=

    Nuclear Repulsion Energy =              7.5551391179390661
    One-Electron Energy =                -120.0423610492188971
    Two-Electron Energy =                  36.5660363952139136
    Total Energy =                        -75.9211855360659200

  Dipole Moment: [D]
     X:    -0.0000      Y:     0.0000      Z:     2.3537     Total:     2.3537

*** Psi4 exiting successfully. Buy a developer a beer!
