                               Psi4 1.3.2 release

  ==> Input File <==

--------------------------------------------------------------------------
# density fitted hartree fock
molecule h2o {
noreorient
nocom
0 1
H 0.0000000000 0.0000000000 0.9333333333
H 0.0000000000 0.8082903769 -0.4666666667
O 0.0000000000 0.0000000000 0.0000000000
}

set scf_type pk
set basis 6-31g
gradient('hf')

--------------------------------------------------------------------------

    Molecular point group: cs
  Charge       = 0
  Multiplicity = 1
  Basis Set: 6-31G
    Blend: 6-31G

    Orbital Energies [Eh]
    ---------------------

    Doubly Occupied:

       1Ap   -20.543608     2Ap    -1.351944     3Ap    -0.749132
       4Ap    -0.534888     1App   -0.495142

  @RHF Final Energy:   -75.98333271929415

   => Energetics <=

    Nuclear Repulsion Energy =              9.3989528310922061
    One-Electron Energy =                -123.4151436015579009
    Two-Electron Energy =                  38.0328580511715444
    Total Energy =                        -75.9833327192941539

  Dipole Moment: [D]
     X:     0.0000      Y:     2.0097      Z:     1.1603     Total:     2.3206

    Molecular point group: cs

    Geometry (in Angstrom), charge = 0, multiplicity = 1:

       Center              X                  Y                   Z               Mass
    ------------   -----------------  -----------------  -----------------  -----------------
         H            0.000000000000     0.000000000000     0.933333333300     1.007825032230
         H            0.000000000000     0.808290376900    -0.466666666700     1.007825032230
         O            0.000000000000     0.000000000000     0.000000000000    15.994914619570

  Basis Set: 6-31G
    Blend: 6-31G

  -Total Gradient:
     Atom            X                  Y                   Z
    ------   -----------------  -----------------  -----------------
       1        0.000000000000    -0.012002487062    -0.013497186893
       2        0.000000000000    -0.017690150170    -0.003645865309
       3        0.000000000000     0.029692637233     0.017143052201

*** Psi4 exiting successfully. Buy a developer a beer!
