                               Psi4 1.3.2 release

  ==> Input File <==

--------------------------------------------------------------------------
# density fitted hartree fock
molecule h2o {
0 1
H 0.0000000000 0.0000000000 0.9000000000
H 0.0000000000 0.8770464461 -0.3192188004
O 0.0000000000 0.0000000000 0.0000000000
}

set scf_type pk
set basis 6-31g
gradient('hf')

--------------------------------------------------------------------------

    Molecular point group: cs
  Charge       = 0
  Multiplicity = 1
  Basis Set: 6-31G
    Blend: 6-31G

    Orbital Energies [Eh]
    ---------------------

    Doubly Occupied:

       1Ap   -20.548357     2Ap    -1.373124     3Ap    -0.743919
       4Ap    -0.555983     1App   -0.501403

  @RHF Final Energy:   -75.98195322892113

   => Energetics <=

    Nuclear Repulsion Energy =              9.5919404978403691
    One-Electron Energy =                -123.7022150649520000
    Two-Electron Energy =                  38.1283213381905028
    Total Energy =                        -75.9819532289211281

  Dipole Moment: [D]
     X:    -2.0731      Y:    -1.4228      Z:     0.0000     Total:     2.5143

    Molecular point group: cs

    Geometry (in Angstrom), charge = 0, multiplicity = 1:

       Center              X                  Y                   Z               Mass
    ------------   -----------------  -----------------  -----------------  -----------------
         H            0.049077270942    -0.867500972819     0.000000000000     1.007825032230
         H           -0.827969175158     0.351717827581     0.000000000000     1.007825032230
         O            0.049077270942     0.032499027181     0.000000000000    15.994914619570

  Basis Set: 6-31G
    Blend: 6-31G

  -Total Gradient:
     Atom            X                  Y                   Z
    ------   -----------------  -----------------  -----------------
       1       -0.005782367313     0.067306007514     0.000000000000
       2        0.016546838022    -0.011956255977     0.000000000000
       3       -0.010764470709    -0.055349751537     0.000000000000

*** Psi4 exiting successfully. Buy a developer a beer!
