                               Psi4 1.3.2 release

  ==> Input File <==

--------------------------------------------------------------------------
# density fitted hartree fock
molecule h2o {
0 1
H 0.0000000000 0.0000000000 0.9166666667
H 0.0000000000 0.8621905611 -0.2581229094
O 0.0000000000 0.0000000000 0.0000000000
}

set scf_type pk
set basis 6-31g
gradient('hf')

--------------------------------------------------------------------------

    Molecular point group: cs
  Charge       = 0
  Multiplicity = 1
  Basis Set: 6-31G
    Blend: 6-31G

    Orbital Energies [Eh]
    ---------------------

    Doubly Occupied:

       1Ap   -20.549128     2Ap    -1.381859     3Ap    -0.742914
       4Ap    -0.563660     1App   -0.503511

  @RHF Final Energy:   -75.98001944659268

   => Energetics <=

    Nuclear Repulsion Energy =              9.6852117621237799
    One-Electron Energy =                -123.8483173728500333
    Two-Electron Energy =                  38.1830861641335702
    Total Energy =                        -75.9800194465926779

  Dipole Moment: [D]
     X:    -2.0559      Y:    -1.5433      Z:     0.0000     Total:     2.5707

    Molecular point group: cs

    Geometry (in Angstrom), charge = 0, multiplicity = 1:

       Center              X                  Y                   Z               Mass
    ------------   -----------------  -----------------  -----------------  -----------------
         H            0.048245973698    -0.879816246124     0.000000000000     1.007825032230
         H           -0.813944587402     0.294973329976     0.000000000000     1.007825032230
         O            0.048245973698     0.036850420576     0.000000000000    15.994914619570

  Basis Set: 6-31G
    Blend: 6-31G

  -Total Gradient:
     Atom            X                  Y                   Z
    ------   -----------------  -----------------  -----------------
       1       -0.012905288425     0.044377874725     0.000000000000
       2        0.062784641528    -0.032517176114     0.000000000000
       3       -0.049879353103    -0.011860698612     0.000000000000

*** Psi4 exiting successfully. Buy a developer a beer!
