                               Psi4 1.2.1 release

  ==> Input File <==

--------------------------------------------------------------------------
# density-fitted hartree fock energies and gradients with 6-31g
molecule h2o {
0 1
H 0.0000000000 0.0000000000 1.0500000000
H 0.0000000000 1.0340481407 -0.1823305866
O 0.0000000000 0.0000000000 0.0000000000
}

set basis 6-31g

gradient('mp2')
--------------------------------------------------------------------------

    Molecular point group: c2v
  Charge       = 0
  Multiplicity = 1
  Basis Set: 6-31G
    Blend: 6-31G
  Basis Set: (6-31G AUX)
    Blend: CC-PVDZ-JKFIT

    Orbital Energies [Eh]
    ---------------------

    Doubly Occupied:

       1A1   -20.582323     2A1    -1.316963     1B2    -0.655016
       3A1    -0.555323     1B1    -0.500044

  @DF-RHF Final Energy:   -75.96766019193427

   => Energetics <=

    Nuclear Repulsion Energy =              8.3926011713954232
    One-Electron Energy =                -121.5011852554880676
    Two-Electron Energy =                  37.1409238921583764
    Total Energy =                        -75.9676601919342716

  Dipole Moment: [D]
     X:     0.0000      Y:     0.0000      Z:     2.7272     Total:     2.7272

  Basis Set: (6-31G AUX)
    Blend: CC-PVDZ-RI
    Molecular point group: c2v

    Geometry (in Angstrom), charge = 0, multiplicity = 1:

       Center              X                  Y                   Z               Mass
    ------------   -----------------  -----------------  -----------------  -----------------
         H            0.000000000000    -0.804346665306     0.599392621596     1.007825032070
         H           -0.000000000000     0.804346665306     0.599392621596     1.007825032070
         O            0.000000000000     0.000000000000    -0.075534368573    15.994914619560

  Basis Set: 6-31G
    Blend: 6-31G
  Basis Set: (6-31G AUX)
    Blend: CC-PVDZ-JKFIT
  Basis Set: (6-31G AUX)
    Blend: CC-PVDZ-JKFIT
	 Reference Energy          =     -75.9676601919342716 [Eh]
	 Singles Energy            =      -0.0000000000000000 [Eh]
	 Same-Spin Energy          =      -0.0320826614445610 [Eh]
	 Opposite-Spin Energy      =      -0.1057666129290435 [Eh]
	 Correlation Energy        =      -0.1378492743736044 [Eh]
	 Total Energy              =     -76.1055094663078791 [Eh]

	 ================> DF-SCS-MP2 Energies <==================
	-----------------------------------------------------------
	 SCS Same-Spin Scale       =       0.3333333333333333 [-]
	 SCS Opposite-Spin Scale   =       1.2000000000000000 [-]
	 SCS Same-Spin Energy      =      -0.0106942204815203 [Eh]
	 SCS Opposite-Spin Energy  =      -0.1269199355148522 [Eh]
	 SCS Correlation Energy    =      -0.1376141559963725 [Eh]
	 SCS Total Energy          =     -76.1052743479306457 [Eh]
	-----------------------------------------------------------

  -Total Gradient:
     Atom            X                  Y                   Z
    ------   -----------------  -----------------  -----------------
       1       -0.000000000000    -0.030415573828     0.036419202383
       2       -0.000000000000     0.030415573820     0.036419202378
       3        0.000000000000     0.000000000008    -0.072838404760

*** Psi4 exiting successfully. Buy a developer a beer!
