                               Psi4 1.3.2 release

  ==> Input File <==

--------------------------------------------------------------------------
# density fitted hartree fock
molecule h2o {
0 1
H 0.0000000000 0.0000000000 0.9500000000
H 0.0000000000 0.8638448856 -0.4338392075
O 0.0000000000 0.0000000000 0.0000000000
}

set scf_type pk
set basis 6-31g
gradient('hf')

--------------------------------------------------------------------------

    Molecular point group: cs
  Charge       = 0
  Multiplicity = 1
  Basis Set: 6-31G
    Blend: 6-31G

    Orbital Energies [Eh]
    ---------------------

    Doubly Occupied:

       1Ap   -20.550864     2Ap    -1.342380     3Ap    -0.728746
       4Ap    -0.537329     1App   -0.494993

  @RHF Final Energy:   -75.98427781466219

   => Energetics <=

    Nuclear Repulsion Energy =              9.1600105789427868
    One-Electron Energy =                -122.9799527678925699
    Two-Electron Energy =                  37.8356643742875818
    Total Energy =                        -75.9842778146621924

  Dipole Moment: [D]
     X:    -2.0529      Y:    -1.2493      Z:     0.0000     Total:     2.4031

    Molecular point group: cs

    Geometry (in Angstrom), charge = 0, multiplicity = 1:

       Center              X                  Y                   Z               Mass
    ------------   -----------------  -----------------  -----------------  -----------------
         H            0.048338545456    -0.921116965156     0.000000000000     1.007825032230
         H           -0.815506340144     0.462722242344     0.000000000000     1.007825032230
         O            0.048338545456     0.028883034844     0.000000000000    15.994914619570

  Basis Set: 6-31G
    Blend: 6-31G

  -Total Gradient:
     Atom            X                  Y                   Z
    ------   -----------------  -----------------  -----------------
       1        0.008905077642    -0.003367926624     0.000000000000
       2       -0.015168832141     0.017411295247     0.000000000000
       3        0.006263754499    -0.014043368623     0.000000000000

*** Psi4 exiting successfully. Buy a developer a beer!
