                               Psi4 1.3.1 release

  ==> Input File <==

--------------------------------------------------------------------------
# density fitted hartree fock
molecule h2o {
0 1
H 0.0000000000 0.0000000000 1.0444444444
H 0.0000000000 0.8718259315 -0.3173186885
O 0.0000000000 0.0000000000 0.0000000000
}

set basis 6-31g
energy('hf')

--------------------------------------------------------------------------

    Molecular point group: cs

    Geometry (in Angstrom), charge = 0, multiplicity = 1:

       Center              X                  Y                   Z               Mass
    ------------   -----------------  -----------------  -----------------  -----------------
         H            0.048785144327    -1.003756350982     0.000000000000     1.007825032230
         H           -0.823040787173     0.358006781918     0.000000000000     1.007825032230
         O            0.048785144327     0.040688093418     0.000000000000    15.994914619570

  Charge       = 0
  Multiplicity = 1
  Basis Set: 6-31G
    Blend: 6-31G
  Basis Set: (6-31G AUX)
    Blend: CC-PVDZ-JKFIT

    Orbital Energies [Eh]
    ---------------------

    Doubly Occupied:

       1Ap   -20.561330     2Ap    -1.338990     3Ap    -0.703578
       4Ap    -0.545052     1App   -0.497204

  @DF-RHF Final Energy:   -75.97711272219365

   => Energetics <=

    Nuclear Repulsion Energy =              8.9435091806536064
    One-Electron Energy =                -122.5489283191075742
    Two-Electron Energy =                  37.6283064162603296
    Total Energy =                        -75.9771127221936382

  Dipole Moment: [D]
     X:    -2.0436      Y:    -1.5130      Z:     0.0000     Total:     2.5427

*** Psi4 exiting successfully. Buy a developer a beer!
