                               Psi4 1.3.2 release

  ==> Input File <==

--------------------------------------------------------------------------
# density fitted hartree fock
molecule h2o {
0 1
H 0.0000000000 0.0000000000 0.9333333333
H 0.0000000000 0.8613849024 -0.3135184647
O 0.0000000000 0.0000000000 0.0000000000
}

set scf_type pk
set basis 6-31g
gradient('hf')

--------------------------------------------------------------------------

    Molecular point group: cs
  Charge       = 0
  Multiplicity = 1
  Basis Set: 6-31G
    Blend: 6-31G

    Orbital Energies [Eh]
    ---------------------

    Doubly Occupied:

       1Ap   -20.549969     2Ap    -1.368040     3Ap    -0.738762
       4Ap    -0.554789     1App   -0.500773

  @RHF Final Energy:   -75.98367322336550

   => Energetics <=

    Nuclear Repulsion Energy =              9.5032640360994591
    One-Electron Energy =                -123.5492069179562407
    Two-Electron Energy =                  38.0622696584912745
    Total Energy =                        -75.9836732233654999

  Dipole Moment: [D]
     X:    -2.0563      Y:    -1.4540      Z:     0.0000     Total:     2.5184

    Molecular point group: cs

    Geometry (in Angstrom), charge = 0, multiplicity = 1:

       Center              X                  Y                   Z               Mass
    ------------   -----------------  -----------------  -----------------  -----------------
         H            0.048200891102    -0.898650082059     0.000000000000     1.007825032230
         H           -0.813184011298     0.348201715941     0.000000000000     1.007825032230
         O            0.048200891102     0.034683251241     0.000000000000    15.994914619570

  Basis Set: 6-31G
    Blend: 6-31G

  -Total Gradient:
     Atom            X                  Y                   Z
    ------   -----------------  -----------------  -----------------
       1       -0.004857139646     0.019909965244     0.000000000000
       2        0.038142844271    -0.019145699673     0.000000000000
       3       -0.033285704625    -0.000764265571     0.000000000000

*** Psi4 exiting successfully. Buy a developer a beer!
