                               Psi4 1.3.2 release

  ==> Input File <==

--------------------------------------------------------------------------
# density fitted hartree fock
molecule h2o {
0 1
H 0.0000000000 0.0000000000 0.9833333333
H 0.0000000000 0.8082903769 -0.4666666667
O 0.0000000000 0.0000000000 0.0000000000
}

set scf_type pk
set basis 6-31g
gradient('hf')

--------------------------------------------------------------------------

    Molecular point group: cs
  Charge       = 0
  Multiplicity = 1
  Basis Set: 6-31G
    Blend: 6-31G

    Orbital Energies [Eh]
    ---------------------

    Doubly Occupied:

       1Ap   -20.547907     2Ap    -1.339363     3Ap    -0.733263
       4Ap    -0.531110     1App   -0.493181

  @RHF Final Energy:   -75.98195594708484

   => Energetics <=

    Nuclear Repulsion Energy =              9.1597431467771138
    One-Electron Energy =                -122.9937498584279467
    Two-Electron Energy =                  37.8520507645659947
    Total Energy =                        -75.9819559470848276

  Dipole Moment: [D]
     X:    -1.9956      Y:    -1.2088      Z:     0.0000     Total:     2.3332

    Molecular point group: cs

    Geometry (in Angstrom), charge = 0, multiplicity = 1:

       Center              X                  Y                   Z               Mass
    ------------   -----------------  -----------------  -----------------  -----------------
         H            0.045229857555    -0.954421991038     0.000000000000     1.007825032230
         H           -0.763060519345     0.495578008962     0.000000000000     1.007825032230
         O            0.045229857555     0.028911342262     0.000000000000    15.994914619570

  Basis Set: 6-31G
    Blend: 6-31G

  -Total Gradient:
     Atom            X                  Y                   Z
    ------   -----------------  -----------------  -----------------
       1        0.013217297283    -0.039520579112     0.000000000000
       2        0.019844721677     0.004622271699     0.000000000000
       3       -0.033062018960     0.034898307413     0.000000000000

*** Psi4 exiting successfully. Buy a developer a beer!
