                               Psi4 1.2.1 release

  ==> Input File <==

--------------------------------------------------------------------------
# density-fitted hartree fock energies and gradients with 6-31g
molecule h2o {
0 1
H 0.0000000000 0.0000000000 0.9000000000
H 0.0000000000 1.0340481407 -0.1823305866
O 0.0000000000 0.0000000000 0.0000000000
}

set basis 6-31g

gradient('mp2')
--------------------------------------------------------------------------

    Molecular point group: cs
  Charge       = 0
  Multiplicity = 1
  Basis Set: 6-31G
    Blend: 6-31G
  Basis Set: (6-31G AUX)
    Blend: CC-PVDZ-JKFIT

    Orbital Energies [Eh]
    ---------------------

    Doubly Occupied:

       1Ap   -20.566798     2Ap    -1.357969     3Ap    -0.694283
       4Ap    -0.564939     1App   -0.503218

  @DF-RHF Final Energy:   -75.97080667325208

   => Energetics <=

    Nuclear Repulsion Energy =              9.0891403130012414
    One-Electron Energy =                -122.7454817034775090
    Two-Electron Energy =                  37.6855347172241864
    Total Energy =                        -75.9708066732520848

  Dipole Moment: [D]
     X:    -2.0992      Y:    -1.7092      Z:     0.0000     Total:     2.7070

  Basis Set: (6-31G AUX)
    Blend: CC-PVDZ-RI
    Molecular point group: cs

    Geometry (in Angstrom), charge = 0, multiplicity = 1:

       Center              X                  Y                   Z               Mass
    ------------   -----------------  -----------------  -----------------  -----------------
         H            0.057862683312    -0.859841059274     0.000000000000     1.007825032070
         H           -0.976185457388     0.222489527326     0.000000000000     1.007825032070
         O            0.057862683312     0.040158940726     0.000000000000    15.994914619560

  Basis Set: 6-31G
    Blend: 6-31G
  Basis Set: (6-31G AUX)
    Blend: CC-PVDZ-JKFIT
  Basis Set: (6-31G AUX)
    Blend: CC-PVDZ-JKFIT
	 Reference Energy          =     -75.9708066732520848 [Eh]
	 Singles Energy            =      -0.0000000000000000 [Eh]
	 Same-Spin Energy          =      -0.0304037222501539 [Eh]
	 Opposite-Spin Energy      =      -0.1001368455907399 [Eh]
	 Correlation Energy        =      -0.1305405678408938 [Eh]
	 Total Energy              =     -76.1013472410929808 [Eh]

	 ================> DF-SCS-MP2 Energies <==================
	-----------------------------------------------------------
	 SCS Same-Spin Scale       =       0.3333333333333333 [-]
	 SCS Opposite-Spin Scale   =       1.2000000000000000 [-]
	 SCS Same-Spin Energy      =      -0.0101345740833846 [Eh]
	 SCS Opposite-Spin Energy  =      -0.1201642147088878 [Eh]
	 SCS Correlation Energy    =      -0.1302987887922725 [Eh]
	 SCS Total Energy          =     -76.1011054620443588 [Eh]
	-----------------------------------------------------------

  -Total Gradient:
     Atom            X                  Y                   Z
    ------   -----------------  -----------------  -----------------
       1       -0.017149551200     0.101540867930    -0.000000000000
       2       -0.050928627452    -0.005946290049    -0.000000000000
       3        0.068078178652    -0.095594577881     0.000000000000

*** Psi4 exiting successfully. Buy a developer a beer!
