                               Psi4 1.3.2 release

  ==> Input File <==

--------------------------------------------------------------------------
# density fitted hartree fock
molecule h2o {
0 1
H 0.0000000000 0.0000000000 0.9833333333
H 0.0000000000 0.8660254038 -0.5000000000
O 0.0000000000 0.0000000000 0.0000000000
}

set scf_type pk
set basis 6-31g
gradient('hf')

--------------------------------------------------------------------------

    Molecular point group: cs
  Charge       = 0
  Multiplicity = 1
  Basis Set: 6-31G
    Blend: 6-31G

    Orbital Energies [Eh]
    ---------------------

    Doubly Occupied:

       1Ap   -20.553800     2Ap    -1.322360     3Ap    -0.712960
       4Ap    -0.526349     1App   -0.490803

  @RHF Final Energy:   -75.97928414508722

   => Energetics <=

    Nuclear Repulsion Energy =              8.8466725920578320
    One-Electron Energy =                -122.4393688337960384
    Two-Electron Energy =                  37.6134120966509968
    Total Energy =                        -75.9792841450872061

  Dipole Moment: [D]
     X:    -2.0393      Y:    -1.1598      Z:     0.0000     Total:     2.3460

    Molecular point group: cs

    Geometry (in Angstrom), charge = 0, multiplicity = 1:

       Center              X                  Y                   Z               Mass
    ------------   -----------------  -----------------  -----------------  -----------------
         H            0.048460561665    -0.956287238924     0.000000000000     1.007825032230
         H           -0.817564842135     0.527046094376     0.000000000000     1.007825032230
         O            0.048460561665     0.027046094376     0.000000000000    15.994914619570

  Basis Set: 6-31G
    Blend: 6-31G

  -Total Gradient:
     Atom            X                  Y                   Z
    ------   -----------------  -----------------  -----------------
       1        0.015422161663    -0.037703467405     0.000000000000
       2       -0.037470057313     0.039144527173     0.000000000000
       3        0.022047895650    -0.001441059768     0.000000000000

*** Psi4 exiting successfully. Buy a developer a beer!
