                               Psi4 1.2.1 release

  ==> Input File <==

--------------------------------------------------------------------------
# density-fitted hartree fock energies and gradients with 6-31g
molecule h2o {
0 1
H 0.0000000000 0.0000000000 0.9000000000
H 0.0000000000 0.9396926208 -0.3420201433
O 0.0000000000 0.0000000000 0.0000000000
}

set basis 6-31g

gradient('mp2')
--------------------------------------------------------------------------

    Molecular point group: cs
  Charge       = 0
  Multiplicity = 1
  Basis Set: 6-31G
    Blend: 6-31G
  Basis Set: (6-31G AUX)
    Blend: CC-PVDZ-JKFIT

    Orbital Energies [Eh]
    ---------------------

    Doubly Occupied:

       1Ap   -20.554555     2Ap    -1.356835     3Ap    -0.723990
       4Ap    -0.550625     1App   -0.499263

  @DF-RHF Final Energy:   -75.97986555990806

   => Energetics <=

    Nuclear Repulsion Energy =              9.2769876312068007
    One-Electron Energy =                -123.1431687202911007
    Two-Electron Energy =                  37.8863155291762439
    Total Energy =                        -75.9798655599080632

  Dipole Moment: [D]
     X:    -2.1088      Y:    -1.3975      Z:     0.0000     Total:     2.5298

  Basis Set: (6-31G AUX)
    Blend: CC-PVDZ-RI
    Molecular point group: cs

    Geometry (in Angstrom), charge = 0, multiplicity = 1:

       Center              X                  Y                   Z               Mass
    ------------   -----------------  -----------------  -----------------  -----------------
         H            0.052582790286    -0.868776877524     0.000000000000     1.007825032070
         H           -0.887109830514     0.373243265776     0.000000000000     1.007825032070
         O            0.052582790286     0.031223122476     0.000000000000    15.994914619560

  Basis Set: 6-31G
    Blend: 6-31G
  Basis Set: (6-31G AUX)
    Blend: CC-PVDZ-JKFIT
  Basis Set: (6-31G AUX)
    Blend: CC-PVDZ-JKFIT
	 Reference Energy          =     -75.9798655599080632 [Eh]
	 Singles Energy            =      -0.0000000000000000 [Eh]
	 Same-Spin Energy          =      -0.0299963852931243 [Eh]
	 Opposite-Spin Energy      =      -0.0977257174140984 [Eh]
	 Correlation Energy        =      -0.1277221027072227 [Eh]
	 Total Energy              =     -76.1075876626152876 [Eh]

	 ================> DF-SCS-MP2 Energies <==================
	-----------------------------------------------------------
	 SCS Same-Spin Scale       =       0.3333333333333333 [-]
	 SCS Opposite-Spin Scale   =       1.2000000000000000 [-]
	 SCS Same-Spin Energy      =      -0.0099987950977081 [Eh]
	 SCS Opposite-Spin Energy  =      -0.1172708608969181 [Eh]
	 SCS Correlation Energy    =      -0.1272696559946262 [Eh]
	 SCS Total Energy          =     -76.1071352159026873 [Eh]
	-----------------------------------------------------------

  -Total Gradient:
     Atom            X                  Y                   Z
    ------   -----------------  -----------------  -----------------
       1       -0.001010352650     0.093051836400     0.000000000000
       2       -0.023498237632     0.007584983280     0.000000000000
       3        0.024508590282    -0.100636819680    -0.000000000000

*** Psi4 exiting successfully. Buy a developer a beer!
