                               Psi4 1.3.2 release

  ==> Input File <==

--------------------------------------------------------------------------
# density fitted hartree fock
molecule h2o {
noreorient
nocom
0 1
H 0.0000000000 0.0000000000 1.0000000000
H 0.0000000000 0.9579895123 -0.2868032327
O 0.0000000000 0.0000000000 0.0000000000
}

set scf_type pk
set basis 6-31g
gradient('hf')

--------------------------------------------------------------------------

    Molecular point group: cs
  Charge       = 0
  Multiplicity = 1
  Basis Set: 6-31G
    Blend: 6-31G

    Orbital Energies [Eh]
    ---------------------

    Doubly Occupied:

       1Ap   -20.567140     2Ap    -1.332414     3Ap    -0.690236
       4Ap    -0.550152     1App   -0.498111

  @RHF Final Energy:   -75.98060271719389

   => Energetics <=

    Nuclear Repulsion Energy =              8.7966956811922614
    One-Electron Energy =                -122.2784906167753007
    Two-Electron Energy =                  37.5011922183891500
    Total Energy =                        -75.9806027171938894

  Dipole Moment: [D]
     X:     0.0000      Y:     2.0912      Z:     1.5568     Total:     2.6070

    Molecular point group: cs

    Geometry (in Angstrom), charge = 0, multiplicity = 1:

       Center              X                  Y                   Z               Mass
    ------------   -----------------  -----------------  -----------------  -----------------
         H            0.000000000000     0.000000000000     1.000000000000     1.007825032230
         H            0.000000000000     0.957989512300    -0.286803232700     1.007825032230
         O            0.000000000000     0.000000000000     0.000000000000    15.994914619570

  Basis Set: 6-31G
    Blend: 6-31G

  -Total Gradient:
     Atom            X                  Y                   Z
    ------   -----------------  -----------------  -----------------
       1        0.000000000000     0.004332931306     0.043641575977
       2        0.000000000000     0.043050870779    -0.008365642317
       3        0.000000000000    -0.047383802086    -0.035275933660

*** Psi4 exiting successfully. Buy a developer a beer!
