                               Psi4 1.3.2 release

  ==> Input File <==

--------------------------------------------------------------------------
# density fitted hartree fock
molecule h2o {
0 1
H 0.0000000000 0.0000000000 0.9833333333
H 0.0000000000 0.9243926271 -0.2190850772
O 0.0000000000 0.0000000000 0.0000000000
}

set scf_type pk
set basis 6-31g
gradient('hf')

--------------------------------------------------------------------------

    Molecular point group: cs
  Charge       = 0
  Multiplicity = 1
  Basis Set: 6-31G
    Blend: 6-31G

    Orbital Energies [Eh]
    ---------------------

    Doubly Occupied:

       1Ap   -20.563130     2Ap    -1.353003     3Ap    -0.702960
       4Ap    -0.561443     1App   -0.501489

  @RHF Final Energy:   -75.98271538591057

   => Energetics <=

    Nuclear Repulsion Energy =              9.1103051434666611
    One-Electron Energy =                -122.8219919788581649
    Two-Electron Energy =                  37.7289714494809232
    Total Energy =                        -75.9827153859105806

  Dipole Moment: [D]
     X:    -2.0734      Y:    -1.6560      Z:     0.0000     Total:     2.6535

    Molecular point group: cs

    Geometry (in Angstrom), charge = 0, multiplicity = 1:

       Center              X                  Y                   Z               Mass
    ------------   -----------------  -----------------  -----------------  -----------------
         H            0.051726641865    -0.940567959929     0.000000000000     1.007825032230
         H           -0.872665985235     0.261850450571     0.000000000000     1.007825032230
         O            0.051726641865     0.042765373371     0.000000000000    15.994914619570

  Basis Set: 6-31G
    Blend: 6-31G

  -Total Gradient:
     Atom            X                  Y                   Z
    ------   -----------------  -----------------  -----------------
       1       -0.013172031610    -0.027799994136     0.000000000000
       2        0.002390572140    -0.014578477791     0.000000000000
       3        0.010781459471     0.042378471928     0.000000000000

*** Psi4 exiting successfully. Buy a developer a beer!
