                               Psi4 1.3.2 release

  ==> Input File <==

--------------------------------------------------------------------------
# density fitted hartree fock
molecule h2o {
0 1
H 0.0000000000 0.0000000000 0.9500000000
H 0.0000000000 0.9730448706 -0.2306158707
O 0.0000000000 0.0000000000 0.0000000000
}

set scf_type pk
set basis 6-31g
gradient('hf')

--------------------------------------------------------------------------

    Molecular point group: cs
  Charge       = 0
  Multiplicity = 1
  Basis Set: 6-31G
    Blend: 6-31G

    Orbital Energies [Eh]
    ---------------------

    Doubly Occupied:

       1Ap   -20.564768     2Ap    -1.349024     3Ap    -0.698509
       4Ap    -0.560099     1App   -0.501102

  @RHF Final Energy:   -75.98161635547991

   => Energetics <=

    Nuclear Repulsion Energy =              9.0355312668293148
    One-Electron Energy =                -122.6872895195131719
    Two-Electron Energy =                  37.6701418972039477
    Total Energy =                        -75.9816163554799147

  Dipole Moment: [D]
     X:    -2.0951      Y:    -1.6328      Z:     0.0000     Total:     2.6562

    Molecular point group: cs

    Geometry (in Angstrom), charge = 0, multiplicity = 1:

       Center              X                  Y                   Z               Mass
    ------------   -----------------  -----------------  -----------------  -----------------
         H            0.054449096698    -0.909745108162     0.000000000000     1.007825032230
         H           -0.918595773902     0.270870762538     0.000000000000     1.007825032230
         O            0.054449096698     0.040254891838     0.000000000000    15.994914619570

  Basis Set: 6-31G
    Blend: 6-31G

  -Total Gradient:
     Atom            X                  Y                   Z
    ------   -----------------  -----------------  -----------------
       1       -0.012869186112     0.005801696389     0.000000000000
       2       -0.043409885440    -0.002276068677     0.000000000000
       3        0.056279071552    -0.003525627712     0.000000000000

*** Psi4 exiting successfully. Buy a developer a beer!
