                               Psi4 1.3.2 release

  ==> Input File <==

--------------------------------------------------------------------------
# density fitted hartree fock
molecule h2o {
0 1
H 0.0000000000 0.0000000000 0.9833333333
H 0.0000000000 0.8787387630 -0.4413191939
O 0.0000000000 0.0000000000 0.0000000000
}

set scf_type pk
set basis 6-31g
gradient('hf')

--------------------------------------------------------------------------

    Molecular point group: c2v
  Charge       = 0
  Multiplicity = 1
  Basis Set: 6-31G
    Blend: 6-31G

    Orbital Energies [Eh]
    ---------------------

    Doubly Occupied:

       1A1   -20.555396     2A1    -1.329795     1B2    -0.713741
       3A1    -0.533706     1B1    -0.493323

  @RHF Final Energy:   -75.98207725289799

   => Energetics <=

    Nuclear Repulsion Energy =              8.9264823863434142
    One-Electron Energy =                -122.5651996698639721
    Two-Electron Energy =                  37.6566400306225688
    Total Energy =                        -75.9820772528979944

  Dipole Moment: [D]
     X:     0.0000      Y:     0.0000      Z:     2.4130     Total:     2.4130

    Molecular point group: c2v

    Geometry (in Angstrom), charge = 0, multiplicity = 1:

       Center              X                  Y                   Z               Mass
    ------------   -----------------  -----------------  -----------------  -----------------
         H            0.000000000000    -0.836931394568     0.458453494642     1.007825032230
         H           -0.000000000000     0.836931394568     0.458453494642     1.007825032230
         O            0.000000000000     0.000000000000    -0.057773476008    15.994914619570

  Basis Set: 6-31G
    Blend: 6-31G

  -Total Gradient:
     Atom            X                  Y                   Z
    ------   -----------------  -----------------  -----------------
       1        0.000000000000    -0.036282302055     0.010201085237
       2       -0.000000000000     0.036282302055     0.010201085237
       3        0.000000000000     0.000000000000    -0.020402170475

*** Psi4 exiting successfully. Buy a developer a beer!
