                               Psi4 1.3.2 release

  ==> Input File <==

--------------------------------------------------------------------------
# density fitted hartree fock
molecule h2o {
noreorient
nocom
0 1
H 0.0000000000 0.0000000000 0.9666666667
H 0.0000000000 0.9240310771 -0.3363198076
O 0.0000000000 0.0000000000 0.0000000000
}

set scf_type pk
set basis 6-31g
gradient('hf')

--------------------------------------------------------------------------

    Molecular point group: cs
  Charge       = 0
  Multiplicity = 1
  Basis Set: 6-31G
    Blend: 6-31G

    Orbital Energies [Eh]
    ---------------------

    Doubly Occupied:

       1Ap   -20.559566     2Ap    -1.341127     3Ap    -0.709156
       4Ap    -0.547445     1App   -0.497564

  @RHF Final Energy:   -75.98400114156949

   => Energetics <=

    Nuclear Repulsion Energy =              9.0158473755943742
    One-Electron Energy =                -122.6899820786870521
    Two-Electron Energy =                  37.6901335615231829
    Total Energy =                        -75.9840011415694931

  Dipole Moment: [D]
     X:     0.0000      Y:     2.0859      Z:     1.4484     Total:     2.5394

    Molecular point group: cs

    Geometry (in Angstrom), charge = 0, multiplicity = 1:

       Center              X                  Y                   Z               Mass
    ------------   -----------------  -----------------  -----------------  -----------------
         H            0.000000000000     0.000000000000     0.966666666700     1.007825032230
         H            0.000000000000     0.924031077100    -0.336319807600     1.007825032230
         O            0.000000000000     0.000000000000     0.000000000000    15.994914619570

  Basis Set: 6-31G
    Blend: 6-31G

  -Total Gradient:
     Atom            X                  Y                   Z
    ------   -----------------  -----------------  -----------------
       1        0.000000000000     0.000604195044     0.016457318725
       2        0.000000000000     0.030624988683    -0.010514511900
       3        0.000000000000    -0.031229183727    -0.005942806826

*** Psi4 exiting successfully. Buy a developer a beer!
