                               Psi4 1.3.2 release

  ==> Input File <==

--------------------------------------------------------------------------
# density fitted hartree fock
molecule h2o {
0 1
H 0.0000000000 0.0000000000 0.9500000000
H 0.0000000000 0.9396926208 -0.3420201433
O 0.0000000000 0.0000000000 0.0000000000
}

set scf_type pk
set basis 6-31g
gradient('hf')

--------------------------------------------------------------------------

    Molecular point group: cs
  Charge       = 0
  Multiplicity = 1
  Basis Set: 6-31G
    Blend: 6-31G

    Orbital Energies [Eh]
    ---------------------

    Doubly Occupied:

       1Ap   -20.559509     2Ap    -1.341706     3Ap    -0.709261
       4Ap    -0.547323     1App   -0.497607

  @RHF Final Energy:   -75.98299638578358

   => Energetics <=

    Nuclear Repulsion Energy =              9.0208786215038170
    One-Electron Energy =                -122.6969398375577924
    Two-Electron Energy =                  37.6930648302703943
    Total Energy =                        -75.9829963857835935

  Dipole Moment: [D]
     X:    -2.0971      Y:    -1.4319      Z:     0.0000     Total:     2.5394

    Molecular point group: cs

    Geometry (in Angstrom), charge = 0, multiplicity = 1:

       Center              X                  Y                   Z               Mass
    ------------   -----------------  -----------------  -----------------  -----------------
         H            0.052582790293    -0.915979005688     0.000000000000     1.007825032230
         H           -0.887109830507     0.376041137612     0.000000000000     1.007825032230
         O            0.052582790293     0.034020994312     0.000000000000    15.994914619570

  Basis Set: 6-31G
    Blend: 6-31G

  -Total Gradient:
     Atom            X                  Y                   Z
    ------   -----------------  -----------------  -----------------
       1       -0.000575131817     0.001417736554     0.000000000000
       2       -0.043916814955     0.015402974774     0.000000000000
       3        0.044491946772    -0.016820711327     0.000000000000

*** Psi4 exiting successfully. Buy a developer a beer!
