                               Psi4 1.2.1 release

  ==> Input File <==

--------------------------------------------------------------------------
# density-fitted hartree fock energies and gradients with 6-31g
molecule h2o {
0 1
H 0.0000000000 0.0000000000 0.9000000000
H 0.0000000000 0.8927079897 -0.3249191362
O 0.0000000000 0.0000000000 0.0000000000
}

set basis 6-31g

gradient('mp2')
--------------------------------------------------------------------------

    Molecular point group: cs
  Charge       = 0
  Multiplicity = 1
  Basis Set: 6-31G
    Blend: 6-31G
  Basis Set: (6-31G AUX)
    Blend: CC-PVDZ-JKFIT

    Orbital Energies [Eh]
    ---------------------

    Doubly Occupied:

       1Ap   -20.549927     2Ap    -1.368694     3Ap    -0.738795
       4Ap    -0.554686     1App   -0.500814

  @DF-RHF Final Energy:   -75.98223974522752

   => Energetics <=

    Nuclear Repulsion Energy =              9.5091565027279668
    One-Electron Energy =                -123.5569614440974675
    Two-Electron Energy =                  38.0655651961419821
    Total Energy =                        -75.9822397452275311

  Dipole Moment: [D]
     X:    -2.0827      Y:    -1.4160      Z:     0.0000     Total:     2.5185

  Basis Set: (6-31G AUX)
    Blend: CC-PVDZ-RI
    Molecular point group: cs

    Geometry (in Angstrom), charge = 0, multiplicity = 1:

       Center              X                  Y                   Z               Mass
    ------------   -----------------  -----------------  -----------------  -----------------
         H            0.049953650768    -0.867819949003     0.000000000000     1.007825032070
         H           -0.842754338932     0.357099187197     0.000000000000     1.007825032070
         O            0.049953650768     0.032180050997     0.000000000000    15.994914619560

  Basis Set: 6-31G
    Blend: 6-31G
  Basis Set: (6-31G AUX)
    Blend: CC-PVDZ-JKFIT
  Basis Set: (6-31G AUX)
    Blend: CC-PVDZ-JKFIT
	 Reference Energy          =     -75.9822397452275169 [Eh]
	 Singles Energy            =      -0.0000000000000000 [Eh]
	 Same-Spin Energy          =      -0.0295207658372856 [Eh]
	 Opposite-Spin Energy      =      -0.0960393477497775 [Eh]
	 Correlation Energy        =      -0.1255601135870631 [Eh]
	 Total Energy              =     -76.1077998588145732 [Eh]

	 ================> DF-SCS-MP2 Energies <==================
	-----------------------------------------------------------
	 SCS Same-Spin Scale       =       0.3333333333333333 [-]
	 SCS Opposite-Spin Scale   =       1.2000000000000000 [-]
	 SCS Same-Spin Energy      =      -0.0098402552790952 [Eh]
	 SCS Opposite-Spin Energy  =      -0.1152472172997330 [Eh]
	 SCS Correlation Energy    =      -0.1250874725788282 [Eh]
	 SCS Total Energy          =     -76.1073272178063434 [Eh]
	-----------------------------------------------------------

  -Total Gradient:
     Atom            X                  Y                   Z
    ------   -----------------  -----------------  -----------------
       1       -0.003705765713     0.091721839834     0.000000000000
       2        0.020387986303    -0.011156660470     0.000000000000
       3       -0.016682220590    -0.080565179363    -0.000000000000

*** Psi4 exiting successfully. Buy a developer a beer!
