                               Psi4 1.3.2 release

  ==> Input File <==

--------------------------------------------------------------------------
# density fitted hartree fock
molecule h2o {
0 1
H 0.0000000000 0.0000000000 0.9000000000
H 0.0000000000 0.9029125051 -0.3894784366
O 0.0000000000 0.0000000000 0.0000000000
}

set scf_type pk
set basis 6-31g
gradient('hf')

--------------------------------------------------------------------------

    Molecular point group: cs
  Charge       = 0
  Multiplicity = 1
  Basis Set: 6-31G
    Blend: 6-31G

    Orbital Energies [Eh]
    ---------------------

    Doubly Occupied:

       1Ap   -20.550405     2Ap    -1.356792     3Ap    -0.734145
       4Ap    -0.545727     1App   -0.498068

  @RHF Final Energy:   -75.98119062267345

   => Energetics <=

    Nuclear Repulsion Energy =              9.3451310156834744
    One-Electron Energy =                -123.2823708638602511
    Two-Electron Energy =                  37.9560492255033139
    Total Energy =                        -75.9811906226734664

  Dipole Moment: [D]
     X:    -2.0929      Y:    -1.2989      Z:     0.0000     Total:     2.4632

    Molecular point group: cs

    Geometry (in Angstrom), charge = 0, multiplicity = 1:

       Center              X                  Y                   Z               Mass
    ------------   -----------------  -----------------  -----------------  -----------------
         H            0.050524669299    -0.871432521961     0.000000000000     1.007825032230
         H           -0.852387835801     0.418045914639     0.000000000000     1.007825032230
         O            0.050524669299     0.028567478039     0.000000000000    15.994914619570

  Basis Set: 6-31G
    Blend: 6-31G

  -Total Gradient:
     Atom            X                  Y                   Z
    ------   -----------------  -----------------  -----------------
       1        0.002622105194     0.066027824483     0.000000000000
       2       -0.031976468765     0.016406950877     0.000000000000
       3        0.029354363571    -0.082434775360     0.000000000000

*** Psi4 exiting successfully. Buy a developer a beer!
