                               Psi4 1.3.2 release

  ==> Input File <==

--------------------------------------------------------------------------
# density fitted hartree fock
molecule h2o {
noreorient
nocom
0 1
H 0.0000000000 0.0000000000 0.9666666667
H 0.0000000000 0.9191539028 -0.1620716325
O 0.0000000000 0.0000000000 0.0000000000
}

set scf_type pk
set basis 6-31g
gradient('hf')

--------------------------------------------------------------------------

    Molecular point group: cs
  Charge       = 0
  Multiplicity = 1
  Basis Set: 6-31G
    Blend: 6-31G

    Orbital Energies [Eh]
    ---------------------

    Doubly Occupied:

       1Ap   -20.562141     2Ap    -1.365897     3Ap    -0.705993
       4Ap    -0.570450     1App   -0.503966

  @RHF Final Energy:   -75.98093889292579

   => Energetics <=

    Nuclear Repulsion Energy =              9.2787375050826650
    One-Electron Energy =                -123.1024614977498857
    Two-Electron Energy =                  37.8427850997414339
    Total Energy =                        -75.9809388929257921

  Dipole Moment: [D]
     X:     0.0000      Y:     2.0629      Z:     1.7446     Total:     2.7017

    Molecular point group: cs

    Geometry (in Angstrom), charge = 0, multiplicity = 1:

       Center              X                  Y                   Z               Mass
    ------------   -----------------  -----------------  -----------------  -----------------
         H            0.000000000000     0.000000000000     0.966666666700     1.007825032230
         H            0.000000000000     0.919153902800    -0.162071632500     1.007825032230
         O            0.000000000000     0.000000000000     0.000000000000    15.994914619570

  Basis Set: 6-31G
    Blend: 6-31G

  -Total Gradient:
     Atom            X                  Y                   Z
    ------   -----------------  -----------------  -----------------
       1        0.000000000000     0.021486610845     0.009597573950
       2        0.000000000000    -0.023530573555     0.026746369192
       3        0.000000000000     0.002043962710    -0.036343943141

*** Psi4 exiting successfully. Buy a developer a beer!
