                               Psi4 1.3.2 release

  ==> Input File <==

--------------------------------------------------------------------------
# density fitted hartree fock
molecule h2o {
noreorient
nocom
0 1
H 0.0000000000 0.0000000000 0.9471306471
H 0.0000000000 0.8808607402 -0.3480528969
O 0.0000000000 0.0000000000 0.0000000000
}

set scf_type pk
set basis 6-31g
set e_convergence 10
gradient('hf')

--------------------------------------------------------------------------

    Molecular point group: cs
  Charge       = 0
  Multiplicity = 1
  Basis Set: 6-31G
    Blend: 6-31G

    Orbital Energies [Eh]
    ---------------------

    Doubly Occupied:

       1Ap   -20.552999     2Ap    -1.353858     3Ap    -0.727903
       4Ap    -0.548574     1App   -0.498458

  @RHF Final Energy:   -75.98534613363226

   => Energetics <=

    Nuclear Repulsion Energy =              9.2773022428847813
    One-Electron Energy =                -123.1617135497059508
    Two-Electron Energy =                  37.8990651731889017
    Total Energy =                        -75.9853461336322624

  Dipole Moment: [D]
     X:     0.0000      Y:     2.0666      Z:     1.4055     Total:     2.4992

    Molecular point group: cs

    Geometry (in Angstrom), charge = 0, multiplicity = 1:

       Center              X                  Y                   Z               Mass
    ------------   -----------------  -----------------  -----------------  -----------------
         H            0.000000000000     0.000000000000     0.947130647100     1.007825032230
         H            0.000000000000     0.880860740200    -0.348052896900     1.007825032230
         O            0.000000000000     0.000000000000     0.000000000000    15.994914619570

  Basis Set: 6-31G
    Blend: 6-31G

  -Total Gradient:
     Atom            X                  Y                   Z
    ------   -----------------  -----------------  -----------------
       1        0.000000000000     0.000179411472    -0.002777876277
       2        0.000000000000    -0.002517580318     0.001187676075
       3        0.000000000000     0.002338168846     0.001590200201

*** Psi4 exiting successfully. Buy a developer a beer!
