                               Psi4 1.2.1 release

  ==> Input File <==

--------------------------------------------------------------------------
# density-fitted hartree fock energies and gradients with 6-31g
molecule h2o {
0 1
H 0.0000000000 0.0000000000 1.1000000000
H 0.0000000000 1.1325289160 -0.1996954043
O 0.0000000000 0.0000000000 0.0000000000
}

set basis 6-31g

gradient('mp2')
--------------------------------------------------------------------------

    Molecular point group: cs
  Charge       = 0
  Multiplicity = 1
  Basis Set: 6-31G
    Blend: 6-31G
  Basis Set: (6-31G AUX)
    Blend: CC-PVDZ-JKFIT

    Orbital Energies [Eh]
    ---------------------

    Doubly Occupied:

       1Ap   -20.596504     2Ap    -1.289357     3Ap    -0.622231
       4Ap    -0.543242     1App   -0.498768

  @DF-RHF Final Energy:   -75.94210992048481

   => Energetics <=

    Nuclear Repulsion Energy =              7.8367594826912637
    One-Electron Energy =                -120.4575355303468172
    Two-Electron Energy =                  36.6786661271707430
    Total Energy =                        -75.9421099204848105

  Dipole Moment: [D]
     X:    -2.0860      Y:    -1.7538      Z:     0.0000     Total:     2.7253

  Basis Set: (6-31G AUX)
    Blend: CC-PVDZ-RI
    Molecular point group: cs

    Geometry (in Angstrom), charge = 0, multiplicity = 1:

       Center              X                  Y                   Z               Mass
    ------------   -----------------  -----------------  -----------------  -----------------
         H            0.063373415056    -1.049621262633     0.000000000000     1.007825032070
         H           -1.069155500944     0.250074141667     0.000000000000     1.007825032070
         O            0.063373415056     0.050378737367     0.000000000000    15.994914619560

  Basis Set: 6-31G
    Blend: 6-31G
  Basis Set: (6-31G AUX)
    Blend: CC-PVDZ-JKFIT
  Basis Set: (6-31G AUX)
    Blend: CC-PVDZ-JKFIT
	 Reference Energy          =     -75.9421099204848105 [Eh]
	 Singles Energy            =      -0.0000000000000000 [Eh]
	 Same-Spin Energy          =      -0.0335688702885161 [Eh]
	 Opposite-Spin Energy      =      -0.1114812865087151 [Eh]
	 Correlation Energy        =      -0.1450501567972312 [Eh]
	 Total Energy              =     -76.0871600772820358 [Eh]

	 ================> DF-SCS-MP2 Energies <==================
	-----------------------------------------------------------
	 SCS Same-Spin Scale       =       0.3333333333333333 [-]
	 SCS Opposite-Spin Scale   =       1.2000000000000000 [-]
	 SCS Same-Spin Energy      =      -0.0111896234295054 [Eh]
	 SCS Opposite-Spin Energy  =      -0.1337775438104581 [Eh]
	 SCS Correlation Energy    =      -0.1449671672399634 [Eh]
	 SCS Total Energy          =     -76.0870770877247793 [Eh]
	-----------------------------------------------------------

  -Total Gradient:
     Atom            X                  Y                   Z
    ------   -----------------  -----------------  -----------------
       1       -0.002336291352    -0.067961993592    -0.000000000000
       2       -0.083458010554     0.012446710265    -0.000000000000
       3        0.085794301906     0.055515283327     0.000000000000

*** Psi4 exiting successfully. Buy a developer a beer!
