                               Psi4 1.2.1 release

  ==> Input File <==

--------------------------------------------------------------------------
# density-fitted hartree fock energies and gradients with 6-31g
molecule h2o {
0 1
H 0.0000000000 0.0000000000 1.0500000000
H 0.0000000000 1.1325289160 -0.1996954043
O 0.0000000000 0.0000000000 0.0000000000
}

set basis 6-31g

gradient('mp2')
--------------------------------------------------------------------------

    Molecular point group: cs
  Charge       = 0
  Multiplicity = 1
  Basis Set: 6-31G
    Blend: 6-31G
  Basis Set: (6-31G AUX)
    Blend: CC-PVDZ-JKFIT

    Orbital Energies [Eh]
    ---------------------

    Doubly Occupied:

       1Ap   -20.591607     2Ap    -1.299395     3Ap    -0.634056
       4Ap    -0.546206     1App   -0.499199

  @DF-RHF Final Energy:   -75.95001492731005

   => Energetics <=

    Nuclear Repulsion Energy =              8.0268272319283049
    One-Electron Energy =                -120.8127583589994885
    Two-Electron Energy =                  36.8359161997611295
    Total Energy =                        -75.9500149273100504

  Dipole Moment: [D]
     X:    -2.0882      Y:    -1.7520      Z:     0.0000     Total:     2.7258

  Basis Set: (6-31G AUX)
    Blend: CC-PVDZ-RI
    Molecular point group: cs

    Geometry (in Angstrom), charge = 0, multiplicity = 1:

       Center              X                  Y                   Z               Mass
    ------------   -----------------  -----------------  -----------------  -----------------
         H            0.063373415056    -1.002419134465     0.000000000000     1.007825032070
         H           -1.069155500944     0.247276269835     0.000000000000     1.007825032070
         O            0.063373415056     0.047580865535     0.000000000000    15.994914619560

  Basis Set: 6-31G
    Blend: 6-31G
  Basis Set: (6-31G AUX)
    Blend: CC-PVDZ-JKFIT
  Basis Set: (6-31G AUX)
    Blend: CC-PVDZ-JKFIT
	 Reference Energy          =     -75.9500149273100504 [Eh]
	 Singles Energy            =      -0.0000000000000000 [Eh]
	 Same-Spin Energy          =      -0.0330355483963866 [Eh]
	 Opposite-Spin Energy      =      -0.1095144153523711 [Eh]
	 Correlation Energy        =      -0.1425499637487576 [Eh]
	 Total Energy              =     -76.0925648910588137 [Eh]

	 ================> DF-SCS-MP2 Energies <==================
	-----------------------------------------------------------
	 SCS Same-Spin Scale       =       0.3333333333333333 [-]
	 SCS Opposite-Spin Scale   =       1.2000000000000000 [-]
	 SCS Same-Spin Energy      =      -0.0110118494654622 [Eh]
	 SCS Opposite-Spin Energy  =      -0.1314172984228452 [Eh]
	 SCS Correlation Energy    =      -0.1424291478883074 [Eh]
	 SCS Total Energy          =     -76.0924440751983582 [Eh]
	-----------------------------------------------------------

  -Total Gradient:
     Atom            X                  Y                   Z
    ------   -----------------  -----------------  -----------------
       1       -0.004235881688    -0.044980444415    -0.000000000000
       2       -0.084638967400     0.010996924831     0.000000000000
       3        0.088874849088     0.033983519584     0.000000000000

*** Psi4 exiting successfully. Buy a developer a beer!
