                               Psi4 1.2.1 release

  ==> Input File <==

--------------------------------------------------------------------------
# density-fitted hartree fock energies and gradients with 6-31g
molecule h2o {
0 1
H 0.0000000000 0.0000000000 1.0000000000
H 0.0000000000 1.1591109915 -0.3105828541
O 0.0000000000 0.0000000000 0.0000000000
}

set basis 6-31g

gradient('mp2')
--------------------------------------------------------------------------

    Molecular point group: cs
  Charge       = 0
  Multiplicity = 1
  Basis Set: 6-31G
    Blend: 6-31G
  Basis Set: (6-31G AUX)
    Blend: CC-PVDZ-JKFIT

    Orbital Energies [Eh]
    ---------------------

    Doubly Occupied:

       1Ap   -20.586286     2Ap    -1.300274     3Ap    -0.643919
       4Ap    -0.534315     1App   -0.496635

  @DF-RHF Final Energy:   -75.94507323642738

   => Energetics <=

    Nuclear Repulsion Energy =              8.0637185970685596
    One-Electron Energy =                -120.8947272411693348
    Two-Electron Energy =                  36.8859354076734007
    Total Energy =                        -75.9450732364273762

  Dipole Moment: [D]
     X:    -2.1136      Y:    -1.5801      Z:     0.0000     Total:     2.6390

  Basis Set: (6-31G AUX)
    Blend: CC-PVDZ-RI
    Molecular point group: cs

    Geometry (in Angstrom), charge = 0, multiplicity = 1:

       Center              X                  Y                   Z               Mass
    ------------   -----------------  -----------------  -----------------  -----------------
         H            0.064860879861    -0.961421983742     0.000000000000     1.007825032070
         H           -1.094250111639     0.349160870358     0.000000000000     1.007825032070
         O            0.064860879861     0.038578016258     0.000000000000    15.994914619560

  Basis Set: 6-31G
    Blend: 6-31G
  Basis Set: (6-31G AUX)
    Blend: CC-PVDZ-JKFIT
  Basis Set: (6-31G AUX)
    Blend: CC-PVDZ-JKFIT
	 Reference Energy          =     -75.9450732364273762 [Eh]
	 Singles Energy            =      -0.0000000000000000 [Eh]
	 Same-Spin Energy          =      -0.0327987996799879 [Eh]
	 Opposite-Spin Energy      =      -0.1088539639689662 [Eh]
	 Correlation Energy        =      -0.1416527636489541 [Eh]
	 Total Energy              =     -76.0867260000763252 [Eh]

	 ================> DF-SCS-MP2 Energies <==================
	-----------------------------------------------------------
	 SCS Same-Spin Scale       =       0.3333333333333333 [-]
	 SCS Opposite-Spin Scale   =       1.2000000000000000 [-]
	 SCS Same-Spin Energy      =      -0.0109329332266626 [Eh]
	 SCS Opposite-Spin Energy  =      -0.1306247567627594 [Eh]
	 SCS Correlation Energy    =      -0.1415576899894221 [Eh]
	 SCS Total Energy          =     -76.0866309264168024 [Eh]
	-----------------------------------------------------------

  -Total Gradient:
     Atom            X                  Y                   Z
    ------   -----------------  -----------------  -----------------
       1        0.003620547419    -0.013718288796     0.000000000000
       2       -0.095447917017     0.028698745531     0.000000000000
       3        0.091827369598    -0.014980456735    -0.000000000000

*** Psi4 exiting successfully. Buy a developer a beer!
