                               Psi4 1.2.1 release

  ==> Input File <==

--------------------------------------------------------------------------
# density-fitted hartree fock energies and gradients with 6-31g
molecule h2o {
0 1
H 0.0000000000 0.0000000000 1.0000000000
H 0.0000000000 1.1108147002 -0.2976419019
O 0.0000000000 0.0000000000 0.0000000000
}

set basis 6-31g

gradient('mp2')
--------------------------------------------------------------------------

    Molecular point group: cs
  Charge       = 0
  Multiplicity = 1
  Basis Set: 6-31G
    Blend: 6-31G
  Basis Set: (6-31G AUX)
    Blend: CC-PVDZ-JKFIT

    Orbital Energies [Eh]
    ---------------------

    Doubly Occupied:

       1Ap   -20.582226     2Ap    -1.306540     3Ap    -0.652913
       4Ap    -0.539986     1App   -0.496901

  @DF-RHF Final Energy:   -75.95628338492928

   => Energetics <=

    Nuclear Repulsion Energy =              8.2244455471412508
    One-Electron Energy =                -121.2043256371247253
    Two-Electron Energy =                  37.0235967050542030
    Total Energy =                        -75.9562833849292787

  Dipole Moment: [D]
     X:    -2.1162      Y:    -1.5829      Z:     0.0000     Total:     2.6427

  Basis Set: (6-31G AUX)
    Blend: CC-PVDZ-RI
    Molecular point group: cs

    Geometry (in Angstrom), charge = 0, multiplicity = 1:

       Center              X                  Y                   Z               Mass
    ------------   -----------------  -----------------  -----------------  -----------------
         H            0.062158343201    -0.960697841230     0.000000000000     1.007825032070
         H           -1.048656356999     0.336944060670     0.000000000000     1.007825032070
         O            0.062158343201     0.039302158770     0.000000000000    15.994914619560

  Basis Set: 6-31G
    Blend: 6-31G
  Basis Set: (6-31G AUX)
    Blend: CC-PVDZ-JKFIT
  Basis Set: (6-31G AUX)
    Blend: CC-PVDZ-JKFIT
	 Reference Energy          =     -75.9562833849292787 [Eh]
	 Singles Energy            =      -0.0000000000000000 [Eh]
	 Same-Spin Energy          =      -0.0324010673307741 [Eh]
	 Opposite-Spin Energy      =      -0.1070291109584500 [Eh]
	 Correlation Energy        =      -0.1394301782892242 [Eh]
	 Total Energy              =     -76.0957135632184958 [Eh]

	 ================> DF-SCS-MP2 Energies <==================
	-----------------------------------------------------------
	 SCS Same-Spin Scale       =       0.3333333333333333 [-]
	 SCS Opposite-Spin Scale   =       1.2000000000000000 [-]
	 SCS Same-Spin Energy      =      -0.0108003557769247 [Eh]
	 SCS Opposite-Spin Energy  =      -0.1284349331501400 [Eh]
	 SCS Correlation Energy    =      -0.1392352889270647 [Eh]
	 SCS Total Energy          =     -76.0955186738563469 [Eh]
	-----------------------------------------------------------

  -Total Gradient:
     Atom            X                  Y                   Z
    ------   -----------------  -----------------  -----------------
       1        0.001698160175    -0.014877000760     0.000000000000
       2       -0.086386749111     0.024676010224     0.000000000000
       3        0.084688588936    -0.009799009464    -0.000000000000

*** Psi4 exiting successfully. Buy a developer a beer!
