                               Psi4 1.3.2 release

  ==> Input File <==

--------------------------------------------------------------------------
# density fitted hartree fock
molecule h2o {
noreorient
nocom
0 1
H 0.0000000000 0.0000000000 0.9496306472
H 0.0000000000 0.8833684174 -0.3485091177
O 0.0000000000 0.0000000000 0.0000000000
}

set scf_type pk
set basis 6-31g
set e_convergence 10
gradient('hf')

--------------------------------------------------------------------------

    Molecular point group: cs
  Charge       = 0
  Multiplicity = 1
  Basis Set: 6-31G
    Blend: 6-31G

    Orbital Energies [Eh]
    ---------------------

    Doubly Occupied:

       1Ap   -20.553497     2Ap    -1.352547     3Ap    -0.726355
       4Ap    -0.548264     1App   -0.498307

  @RHF Final Energy:   -75.98535917035615

   => Energetics <=

    Nuclear Repulsion Energy =              9.2529388105204120
    One-Electron Energy =                -123.1186559873854662
    Two-Electron Energy =                  37.8803580065089065
    Total Energy =                        -75.9853591703561335

  Dipole Moment: [D]
     X:     0.0000      Y:     2.0676      Z:     1.4069     Total:     2.5009

    Molecular point group: cs

    Geometry (in Angstrom), charge = 0, multiplicity = 1:

       Center              X                  Y                   Z               Mass
    ------------   -----------------  -----------------  -----------------  -----------------
         H            0.000000000000     0.000000000000     0.949630647200     1.007825032230
         H            0.000000000000     0.883368417400    -0.348509117700     1.007825032230
         O            0.000000000000     0.000000000000     0.000000000000    15.994914619570

  Basis Set: 6-31G
    Blend: 6-31G

  -Total Gradient:
     Atom            X                  Y                   Z
    ------   -----------------  -----------------  -----------------
       1        0.000000000000     0.000025653604    -0.000010145474
       2        0.000000000000    -0.000000022894     0.000027586935
       3        0.000000000000    -0.000025630710    -0.000017441462

*** Psi4 exiting successfully. Buy a developer a beer!
